54   
6    

1    
  0.0046102393689166  -0.0000000033643518   0.0194613898003529
  -0.0616842434   -0.0000470539   -0.1874894531
   0.0031575374   -0.0026845868    0.0890613880
   0.0028338163    0.0036545658    0.0896390619
   0.0010684673   -0.0037831951    0.0882890989
   0.0012452620    0.0036368308    0.0893306048
   0.0006722236   -0.0004776640    0.0946604394
   0.0012943244    0.0020133040    0.0892526038
  -0.0001769803   -0.0003533021    0.0957977281
   0.0009608685   -0.0015282330    0.0898857261
  -0.0001463024   -0.0008937622   -0.0942116373
   0.0002240497    0.0001593061   -0.0953005703
   0.0000240740   -0.0011917263   -0.0967623620
  -0.0000564368   -0.0000112465   -0.0939240714
   0.0004173804    0.0005397578   -0.0937346700
   0.0003458745    0.0000403505   -0.0932920035
  -0.0004895760    0.0000371093   -0.0941019863
   0.0007563481    0.0007329803   -0.0944515500
  -0.0004377625   -0.0002300137   -0.0932810774
   0.0001144410    0.0001582363   -0.1813192267
   0.0001150967    0.0000317344   -0.1803603338
  -0.0000973791    0.0000902858   -0.1804196737
   0.0001424259   -0.0002399569   -0.1805995200
  -0.0000237029   -0.0001147248   -0.1804448630
  -0.0001989402    0.0000851811   -0.1810939177
  -0.0003046105    0.0001139390   -0.1804252492
   0.0001923728    0.0001751014   -0.1806247035
   0.0000851057   -0.0001426526   -0.1805630598
   0.0433717605   -0.0224750234    0.2364680670
   0.0000991278    0.0000064970    0.1822725651
  -0.0215655546   -0.0145948982    0.2214318236
   0.0039976301    0.0373529150    0.2289964283
   0.0016793490    0.0014448697    0.1826357213
  -0.0014193631    0.0001362210    0.1823938195
   0.0002545986    0.0000270144    0.1824237644
   0.0001011740    0.0002396178    0.1822597081
  -0.0011816250   -0.0017524523    0.1825426763
  -0.0213699619    0.0149980194   -0.1827337150
   0.0000685198    0.0000121774   -0.2220529448
   0.0423745254    0.0220319377   -0.1687710549
   0.0041331772   -0.0370096848   -0.1758685730
  -0.0015218797   -0.0005650808   -0.2218438038
   0.0016741302   -0.0016650690   -0.2216778885
   0.0003796112    0.0000792478   -0.2223683464
   0.0000207943    0.0003193672   -0.2221326989
  -0.0011631880    0.0018555982   -0.2219035196
  -0.0000127968   -0.0000130016    0.2235917551
   0.0000629307   -0.0001670644    0.2237617452
  -0.0000065117   -0.0002765966    0.2236782106
   0.0003049117   -0.0000695472    0.2239489527
  -0.0001951214    0.0000189453    0.2237961410
  -0.0001177813    0.0000890862    0.2240663151
   0.0000282319    0.0000483379    0.2238416079
   0.0000249186    0.0000887159    0.2236763349
  -0.0000553418    0.0000692857    0.2240501863

1    
 -0.0046102393689166   0.0000000033643518  -0.0194613898003529
   0.0618016065   -0.0000468343    0.3758797063
  -0.0031654446    0.0026879329    0.1008561956
  -0.0027390906   -0.0022108087    0.1012561396
  -0.0009456831    0.0036714950    0.1000012499
  -0.0015708300   -0.0042211027    0.1010303806
  -0.0005723393   -0.0004776567    0.0925435939
  -0.0010968604   -0.0011169086    0.1010536195
  -0.0014212863   -0.0003533295    0.0936814194
  -0.0014821639    0.0024979084    0.1014966488
  -0.0006010246   -0.0006517962   -0.0942490804
   0.0002193847   -0.0000213166   -0.0953606065
   0.0004803120   -0.0009078611   -0.0965839279
  -0.0000919660   -0.0005371559   -0.0938535736
   0.0003470811    0.0004639118   -0.0941041763
   0.0003799839    0.0000559795   -0.0936368170
  -0.0003703754    0.0001086477   -0.0941249821
   0.0005627975    0.0008420563   -0.0945486348
  -0.0003766390   -0.0001697115   -0.0936382410
  -0.0000290424    0.0001582253   -0.1799114620
   0.0001112950   -0.0003137298   -0.1808523370
  -0.0001333159   -0.0001949839   -0.1808996270
   0.0003439871   -0.0000565516   -0.1811309947
  -0.0003522834    0.0000451343   -0.1808853480
  -0.0001269008    0.0000852250   -0.1806931833
  -0.0000289014    0.0002290402   -0.1809626782
   0.0001849242    0.0001750724   -0.1805748752
  -0.0002014612    0.0000297147   -0.1809974463
  -0.0414506663    0.0219698520    0.1257425231
  -0.0004781184    0.0002444872    0.1784210578
   0.0211314782    0.0145845712    0.1400154672
  -0.0038448496   -0.0362688114    0.1329273803
  -0.0019079462   -0.0019412342    0.1781279120
   0.0016374269   -0.0003136229    0.1786586605
  -0.0001995406    0.0000980915    0.1785229758
   0.0000592230   -0.0000694930    0.1784574172
   0.0010960540    0.0020835172    0.1784212052
   0.0222110811   -0.0147539976   -0.2653572343
  -0.0005153721    0.0001498679   -0.2255163517
  -0.0436988192   -0.0230729384   -0.2806777608
  -0.0038170250    0.0378446148   -0.2731316136
   0.0012839960   -0.0002713676   -0.2259363387
  -0.0016896000    0.0016032879   -0.2263764282
  -0.0000037728    0.0001950186   -0.2257817919
  -0.0001241075    0.0000658688   -0.2256460883
   0.0011340539   -0.0017064707   -0.2262991045
  -0.0000200436   -0.0000130185    0.2237690970
   0.0000540460   -0.0000981070    0.2237722307
   0.0000007894   -0.0002254772    0.2236824154
   0.0002629597   -0.0001039233    0.2239606756
  -0.0001411491   -0.0000206594    0.2237990939
  -0.0001112074    0.0000891281    0.2240983738
  -0.0000306713    0.0000254159    0.2238564013
   0.0000381565    0.0000886870    0.2236489335
  -0.0000021392    0.0000461170    0.2240499290

19   
  0.0046102393689166  -0.0000000033643518   0.0194613898003529
   0.0001256615   -0.0000962545    0.0935194447
  -0.0001303371   -0.0001771481    0.0951818665
   0.0001925317    0.0005800252    0.0957032413
   0.0002658300   -0.0000615605    0.0943899220
  -0.0003611462   -0.0003191094    0.0954143713
   0.0000533682   -0.0004777063    0.0935815400
   0.0002145930    0.0006298882    0.0953815361
  -0.0008353644   -0.0003546046    0.0945395306
  -0.0003136488    0.0006696843    0.0959413134
   0.0419386456   -0.0229280433   -0.0378531062
   0.0005152407   -0.0000488211   -0.0933858802
  -0.0204214436   -0.0152581141   -0.0559876464
   0.0038629151    0.0360535290   -0.0453916549
   0.0012990833    0.0016956597   -0.0914495612
  -0.0003053261   -0.0002294038   -0.0917991344
  -0.0002050033    0.0000337998   -0.0921418168
   0.0006818150    0.0009446381   -0.0925819182
  -0.0015571665   -0.0011151959   -0.0913927589
  -0.0288490918    0.0002000546   -0.3355621773
   0.0010275934    0.0002058959   -0.1846448828
   0.0026304800    0.0004428221   -0.1851147265
   0.0006161509   -0.0021270944   -0.1853051499
  -0.0000082253   -0.0000722215   -0.1847205651
  -0.0002911758    0.0000849972   -0.1808604904
  -0.0007155081   -0.0000652873   -0.1849254757
   0.0000611457    0.0001751216   -0.1805645828
   0.0010441464    0.0013531020   -0.1850438626
  -0.0008414862    0.0007560010    0.1813804378
  -0.0001924793    0.0000479610    0.1802858877
   0.0012763933    0.0008884200    0.1819934695
   0.0000216754   -0.0013397529    0.1817595715
  -0.0002690596   -0.0003137572    0.1801725390
   0.0002404754   -0.0001905484    0.1803773053
   0.0000984253    0.0001052775    0.1804193554
   0.0000172686    0.0001197517    0.1802930047
  -0.0000858667    0.0003307487    0.1803033358
   0.0001378523    0.0002833933   -0.2237178205
  -0.0002202745    0.0000636690   -0.2237638266
   0.0001398000   -0.0000555341   -0.2239237671
   0.0001547763   -0.0001877525   -0.2239605323
  -0.0000859039   -0.0004038771   -0.2239130776
  -0.0000208058   -0.0000208410   -0.2240470020
   0.0002047100    0.0001450704   -0.2240600150
  -0.0000644238    0.0002018811   -0.2238652018
  -0.0000083170    0.0000479111   -0.2241231127
  -0.0007507411   -0.0000128790    0.2417008650
   0.0022478041    0.0015737980    0.2246723754
  -0.0014335169    0.0008378988    0.2237228064
  -0.0021411393    0.0006956250    0.2245227624
   0.0016376366    0.0009537211    0.2241758376
  -0.0000492054    0.0000892839    0.2231302643
  -0.0006149363   -0.0029398365    0.2248498256
   0.0000947985    0.0000887525    0.2226890881
  -0.0000292233   -0.0015030382    0.2239982485

19   
 -0.0046102393689166   0.0000000033643518  -0.0194613898003529
  -0.0000175419   -0.0000962623    0.0949215693
  -0.0001241875    0.0000962845    0.0946858821
   0.0001473290    0.0007795265    0.0952148990
   0.0000431169   -0.0001792987    0.0939643773
  -0.0001485967   -0.0003933081    0.0948555834
   0.0000462816   -0.0004776808    0.0936252030
  -0.0000405229    0.0004942996    0.0949521648
  -0.0007629571   -0.0003546306    0.0949341247
  -0.0001848748    0.0005242691    0.0953863424
  -0.0409782934    0.0204161219   -0.1490359944
  -0.0000622242    0.0001917339   -0.0972433721
   0.0203666976    0.0128196593   -0.1369552883
  -0.0039804581   -0.0353660001   -0.1414652616
  -0.0005959734   -0.0007137332   -0.0963644211
   0.0010607471    0.0002971391   -0.0951401111
  -0.0006611569    0.0001038257   -0.0960482095
   0.0006422947    0.0006340487   -0.0963905405
   0.0007209489    0.0007676845   -0.0955206800
   0.0278659336    0.0001975494   -0.0286934993
  -0.0007989269   -0.0004956474   -0.1766335496
  -0.0028578444   -0.0005497081   -0.1762356599
  -0.0001244034    0.0018165353   -0.1764692215
  -0.0003849626    0.0000026108   -0.1766660661
  -0.0000353701    0.0000849657   -0.1809392141
   0.0003748142    0.0004162434   -0.1765234612
   0.0003169903    0.0001750886   -0.1806434703
  -0.0011637827   -0.0014527338   -0.1765555441
   0.0011701994   -0.0003362809    0.1792296689
  -0.0002113151    0.0002034570    0.1803878374
  -0.0011727954   -0.0005948616    0.1787857287
   0.0001415812    0.0012357501    0.1790803374
   0.0000018080   -0.0001968185    0.1805952687
  -0.0000307889    0.0000055644    0.1806715863
  -0.0000568890    0.0000265056    0.1804893133
   0.0001313294    0.0000429995    0.1804268285
  -0.0000174560    0.0000177513    0.1806618086
   0.0001241258    0.0002909462   -0.2237400875
  -0.0002024726    0.0001022789   -0.2237779169
   0.0001584710   -0.0000444279   -0.2239320007
   0.0001542164   -0.0002064305   -0.2239757581
  -0.0001455498   -0.0004418566   -0.2238641528
   0.0000456825   -0.0000556367   -0.2240108819
   0.0001794569    0.0001202385   -0.2240854716
  -0.0000227564    0.0001880768   -0.2238678116
  -0.0000020916    0.0001207342   -0.2240805548
   0.0006978865   -0.0000129029    0.2060325260
  -0.0021294025   -0.0018491287    0.2228792136
   0.0014480338   -0.0013561260    0.2236352010
   0.0027114871   -0.0008715821    0.2233964676
  -0.0020035242   -0.0009567766    0.2234213704
  -0.0001768196    0.0000892530    0.2250374629
   0.0006123840    0.0030012165    0.2228707488
  -0.0000308062    0.0000887178    0.2246201123
  -0.0000370716    0.0016507565    0.2240965739

37   
  0.0046102393689166  -0.0000000033643518   0.0194613898003529
  -0.0204973005    0.0140725752    0.1353793394
   0.0422450640    0.0221189068    0.1520384404
   0.0004685616    0.0007985192    0.0972110332
   0.0001843900   -0.0002761809    0.0959403504
  -0.0014155906    0.0003574658    0.0973401573
   0.0002839103   -0.0004416581    0.0953389356
   0.0040768521   -0.0357299983    0.1442635361
  -0.0000497353   -0.0014575367    0.0973134926
  -0.0007360019    0.0009862045    0.0974963599
  -0.0003714970   -0.0007719423   -0.0943239775
   0.0002145214    0.0000833361   -0.0953267431
   0.0002605069   -0.0010333813   -0.0966780979
  -0.0000869672   -0.0002867611   -0.0938889327
   0.0003879654    0.0004855457   -0.0939246306
   0.0003603175    0.0000477197   -0.0934776067
  -0.0004452141    0.0000677649   -0.0941039681
   0.0006527674    0.0007872292   -0.0944801956
  -0.0003895232   -0.0001967458   -0.0934663008
   0.0000551334    0.0001505341   -0.1806188103
   0.0001014868   -0.0001492890   -0.1805986164
  -0.0001274291   -0.0000795960   -0.1806507546
   0.0002609079   -0.0001290772   -0.1808519442
  -0.0001877464   -0.0000157690   -0.1806845018
  -0.0001914333    0.0000965207   -0.1808891136
  -0.0001653630    0.0001848680   -0.1806848899
   0.0002004734    0.0001664131   -0.1806297544
  -0.0000745985   -0.0000673600   -0.1807927379
  -0.0005772852    0.0002127477    0.1983279357
   0.0019720733   -0.0016648117    0.1812458820
  -0.0013486849   -0.0010209716    0.1804482931
   0.0001638462    0.0015250231    0.1803955201
  -0.0008285946    0.0027521728    0.1813674609
   0.0001699841   -0.0000931296    0.1795623533
   0.0018916379   -0.0008309061    0.1808528295
   0.0001390721    0.0000810648    0.1793965733
  -0.0025459512   -0.0005519094    0.1810293146
  -0.0285532557    0.0002461751   -0.3755518073
   0.0005018610   -0.0001221091   -0.2279586890
   0.0029583276   -0.0004308565   -0.2285939537
   0.0012089515   -0.0017337019   -0.2284536655
  -0.0006220895   -0.0004162831   -0.2282583761
  -0.0001327013   -0.0000381110   -0.2238689500
   0.0001916866    0.0002448770   -0.2283192681
  -0.0001905598    0.0001954637   -0.2237128164
   0.0005416555    0.0020887949   -0.2287109430
  -0.0000151082   -0.0000146594    0.2236920811
   0.0000591575   -0.0001313245    0.2237782766
  -0.0000014070   -0.0002460635    0.2236834633
   0.0002810020   -0.0000892483    0.2239571224
  -0.0001687686   -0.0000035230    0.2237924312
  -0.0001088778    0.0000866120    0.2240867820
  -0.0000026738    0.0000372797    0.2238604941
   0.0000289441    0.0000897955    0.2236561962
  -0.0000266996    0.0000592952    0.2240453906

37   
 -0.0046102393689166   0.0000000033643518  -0.0194613898003529
   0.0200499720   -0.0139283998    0.0534708880
  -0.0407975682   -0.0212358510    0.0394076388
  -0.0001157761    0.0005543256    0.0937415199
   0.0001317896    0.0000309755    0.0924426071
   0.0008821581   -0.0011190073    0.0929380580
  -0.0001913304   -0.0005044750    0.0918976342
  -0.0038741244    0.0356229730    0.0469956221
  -0.0016067948    0.0007680695    0.0921806627
   0.0002644580    0.0002372441    0.0938250060
  -0.0003786867   -0.0007724142   -0.0941523256
   0.0002274706    0.0000552519   -0.0953270765
   0.0002469831   -0.0010639864   -0.0966746063
  -0.0000623299   -0.0002653666   -0.0938987142
   0.0003758328    0.0005171391   -0.0939116772
   0.0003674898    0.0000483072   -0.0934512424
  -0.0004161170    0.0000781956   -0.0941156717
   0.0006664301    0.0007871101   -0.0945133518
  -0.0004236729   -0.0002014761   -0.0934514447
   0.0000279004    0.0001658702   -0.1806382684
   0.0001335550   -0.0001304926   -0.1806106981
  -0.0001095172   -0.0000236185   -0.1806652738
   0.0002206556   -0.0001624069   -0.1808741300
  -0.0001816501   -0.0000468347   -0.1806424412
  -0.0001346301    0.0000742714   -0.1808956188
  -0.0001659095    0.0001504538   -0.1807002416
   0.0001767857    0.0001834140   -0.1805725754
  -0.0000440792   -0.0000534079   -0.1807653048
   0.0008715976    0.0002127116    0.1626603133
  -0.0023755494    0.0019294973    0.1794460021
   0.0015029948    0.0013535952    0.1803683408
  -0.0000154028   -0.0016885258    0.1804619032
   0.0005619873   -0.0032536871    0.1794213194
   0.0000424610   -0.0000930968    0.1814696673
  -0.0018830722    0.0009635282    0.1800591100
   0.0000134715    0.0000811733    0.1813280729
   0.0024483151    0.0009039817    0.1799430172
   0.0277336937    0.0002487843   -0.0749810618
  -0.0009235637    0.0002928695   -0.2196516069
  -0.0026535807    0.0003311638   -0.2192952994
  -0.0009002755    0.0013238193   -0.2195237978
   0.0003815747   -0.0004366917   -0.2195826473
   0.0001584527   -0.0000380870   -0.2241936730
   0.0001759484    0.0000235542   -0.2198849867
   0.0001005262    0.0001955725   -0.2240377474
  -0.0005479564   -0.0019041721   -0.2195392243
  -0.0000178194   -0.0000114485    0.2236691660
   0.0000578511   -0.0001338320    0.2237560029
  -0.0000040313   -0.0002555290    0.2236768503
   0.0002864920   -0.0000843253    0.2239522174
  -0.0001673936    0.0000018286    0.2238024331
  -0.0001196974    0.0000915443    0.2240780993
   0.0000003102    0.0000362917    0.2238374632
   0.0000339524    0.0000875002    0.2236670801
  -0.0000305809    0.0000561154    0.2240540118
