LAMMPS data file via write_data, version 29 Sep 2021, timestep = 2075

864 atoms
1 atom types

0 34.7786 xlo xhi
0 34.7786 ylo yhi
0 34.7786 zlo zhi

Masses

1 39.95

Pair Coeffs # lj/cut

1 0.238465 3.4

Atoms # atomic

86 1 9.793625262733343 4.173021462817829 4.714401135566421 0 0 0
299 1 7.60816046011058 0.5129584663718522 4.245694622675505 0 0 1
169 1 11.41874008826012 0.7719466314635192 4.590704533787841 0 0 0
435 1 11.951169186584249 0.6814445111275348 0.7404960189768186 0 0 1
176 1 14.339965556689043 3.091641272383595 2.3931555909248314 0 0 0
196 1 17.746867242139267 3.7276788494216313 4.529473034717775 0 0 0
599 1 17.836539846333462 2.1737376099839 1.2017009815796085 0 1 0
54 1 18.542579544811403 0.06480662023482903 4.289943329755637 0 0 0
22 1 23.955607364437707 1.406930548652179 1.3012280659462907 0 0 0
63 1 21.195332011419957 2.6342260406098026 3.4404592356685804 0 0 0
80 1 24.5003084007353 1.5403508506709183 4.954948840411902 0 0 0
215 1 25.146639574619623 4.550805611832809 2.8307999914036532 0 0 0
189 1 27.63182142510558 1.8971123742628713 3.1531748145638683 0 0 0
192 1 33.11872717563466 1.545739359393499 4.210852020793113 0 0 0
293 1 29.947557673780185 0.5250779276986564 0.6758046642637728 0 0 1
51 1 3.245640429738914 9.699931086871695 4.725999461557165 1 0 0
403 1 7.2091243730819805 9.945865179385528 4.261194330278945 0 0 1
442 1 12.34122810576125 6.383746771876912 2.85151367668541 0 0 1
242 1 14.220338251216827 9.05799469302036 0.900892596637489 0 0 1
1 1 16.09064586545572 6.379471295027231 2.4520351609149653 0 0 0
212 1 18.53322466357695 7.3251640063370305 5.1092415035325365 0 0 0
56 1 19.595394767381805 5.647197320391574 1.857395661519827 0 0 0
177 1 22.278198540210738 6.24160857134939 4.4375522357293615 0 0 0
406 1 22.921367413538267 6.677967140864594 0.8178426940409587 0 0 1
84 1 20.715403043772795 9.152768137140349 2.8230736594932715 0 0 0
160 1 25.883046934945057 7.642759266922414 4.8141049424467 0 0 0
257 1 26.561188693556904 7.3384426551996 0.8367063513480019 0 0 1
68 1 28.780449205097238 5.686285269212322 3.6349411144851387 0 0 0
159 1 3.1957166671709745 13.8751686180494 2.2331502562621384 0 0 0
372 1 6.937414298676643 14.51099012204221 2.3543070220588307 0 0 1
14 1 11.037974491536756 9.921368820653246 3.7068212193206636 0 0 0
119 1 10.972379474554927 14.388950052626768 2.363781655228446 0 0 0
267 1 14.054154757727124 12.094490990642763 3.041558935387832 0 0 1
73 1 17.198266322352737 10.271846516536957 3.163363679358175 0 0 0
37 1 18.2040111332554 13.98702221927998 4.001274699938975 0 0 0
287 1 19.6069036034362 12.17043135398183 1.0875256379040759 0 0 1
440 1 23.167431303008595 13.140808834903511 0.5029864323978636 0 0 1
202 1 21.829584933600195 12.647592954929168 3.949372432662413 0 0 0
88 1 24.242255010244744 9.998250270145054 2.446710616767999 0 0 0
303 1 34.257389697290854 13.390924094673387 2.065974812875314 0 0 1
4 1 2.121461677771966 17.350435729745996 1.958255297735012 0 0 0
207 1 4.860671622398841 16.6085984790185 4.5559580536147966 0 0 0
16 1 5.860369468440561 18.117169960508928 1.141648700683316 0 0 0
206 1 9.089207472593593 17.596489171396808 3.0901895170682367 0 0 0
269 1 14.510503329605005 15.289985334819828 1.4051334049726856 0 0 1
200 1 14.9674228422267 15.213012120855403 5.16528114114526 0 0 0
99 1 13.216840713178676 18.161335450422218 3.802017380142951 0 0 0
731 1 11.898797031155643 17.747750753241696 0.47608861783806083 0 0 1
555 1 20.008878016410158 19.23309088021546 4.072665188344799 0 0 0
163 1 16.88671093763057 17.67699258826554 2.8237560743258934 0 0 0
740 1 19.26600775876735 18.974219337343246 0.2587674683109542 0 0 1
280 1 21.033862144934375 16.033229283113354 2.239527534620504 0 0 1
90 1 23.63537606998356 18.114244192460234 4.955617233432122 0 0 0
672 1 22.705556993489935 20.200900041969106 1.7448820138482048 0 0 1
151 1 34.5044459045353 16.06353075649692 4.577001528942501 0 0 0
355 1 30.869790416325884 16.729181989346188 4.529053664189092 0 0 1
824 1 33.20662059684473 17.07244821578081 1.2619343983879687 0 0 1
553 1 34.408471566521584 19.754229489925432 3.6244825969559424 0 0 0
633 1 3.81955841349425 23.451260048907535 1.9636046579745443 0 0 0
639 1 3.8050232218204267 20.147786205591213 3.478931304084537 0 0 0
736 1 1.5576961732128276 20.811906500949274 0.6449081518103442 0 0 1
512 1 7.122765987389033 21.529434199150213 2.1663196284240596 0 0 0
616 1 11.234458697800056 24.61878460581449 2.7366405790616866 0 0 0
481 1 10.925449943732454 20.889130040130535 2.4673509195361008 0 0 0
581 1 14.504354739818181 20.512543326918472 1.460871083744647 0 0 0
449 1 14.996379935828989 23.772029934247648 3.108160156592852 0 0 0
761 1 17.97201551137728 21.78250586427391 2.2677874767041053 0 0 1
462 1 21.196641098228138 23.34967567907334 2.842778717766737 0 0 0
559 1 25.060062031977488 23.5751876715664 3.464270955760703 0 0 0
469 1 28.37190690028251 24.515216743225608 1.8286328141422066 0 0 0
614 1 0.15460978308952636 23.49246178594806 2.715233415319018 0 0 0
503 1 31.45881537721121 22.052615159946104 2.1981316981960255 0 0 0
569 1 2.6021311282454036 25.477111218835507 4.793536881020898 0 0 0
856 1 0.6844710071101918 27.234832819145495 2.2055211945818467 0 0 1
560 1 3.461086168993493 29.076204623568156 4.3705480753285855 0 0 0
525 1 4.430456988200102 27.092367465320624 1.5516583529372214 0 0 0
483 1 7.386552825420659 25.15265152910585 2.9290654656589163 0 0 0
64 1 7.311553717873578 28.81700762856855 3.757041819461062 0 -1 0
451 1 7.935932112080665 27.757059169984984 0.30137017757527446 0 0 0
730 1 10.97596381511691 28.481969148487845 2.6798057500488577 0 0 1
651 1 14.324508898008286 27.092837828000942 1.2690201836965886 0 0 0
544 1 14.698387683676458 29.843388095062867 3.7411176341430927 0 0 0
473 1 18.28374383707946 25.2476052157542 3.9670191662430248 0 0 0
703 1 17.129191647475164 24.91078986447528 0.3039690775670668 0 0 1
448 1 18.119926129880067 28.224637872441473 1.7650322903402222 0 0 0
540 1 21.78873765293175 26.847916817590388 2.463532947273133 0 0 0
563 1 23.71888264941447 29.04618027349432 4.841968841598158 0 0 0
631 1 25.566144453381913 27.099942518800503 2.1879385670349825 0 0 0
570 1 29.04904453196621 28.091147104917574 1.1828455411311376 0 0 0
796 1 32.09096461258417 25.725691324510798 1.7202286687063155 0 0 1
523 1 29.960862842296166 26.65074993942155 4.531599099559663 0 0 0
655 1 32.56356765727053 29.45565154952188 1.2343604943555362 0 0 0
585 1 1.1541190889793054 31.19020258980164 2.3973248200289397 0 0 0
797 1 5.718182244506353 32.09509800498408 3.520618287548138 0 0 1
10 1 9.552181269541201 32.00902184818423 4.7376485478153105 0 -1 0
416 1 8.727397028537906 31.287585415891012 1.1883353946066295 0 -1 1
458 1 5.283822256447556 30.478571135405865 0.20077865603463776 0 0 0
74 1 12.222831120667363 32.0332948980727 2.1357500987917812 0 -1 0
547 1 17.946791783406876 31.77028327877445 2.516598178073194 0 0 0
114 1 15.155041016887132 34.179078727657185 2.4293955369029603 0 -1 0
788 1 15.283637988908545 30.598959225687032 0.17897642853941212 0 0 1
732 1 20.462285725304042 34.36247710950469 0.981404538955849 0 0 1
716 1 21.36866710958183 30.437613904441886 2.2427692689558913 0 0 1
776 1 22.967406907808087 33.44095206582172 3.425136532223789 0 0 1
659 1 25.073773435605577 30.78820621651945 1.9015073998526184 0 0 0
621 1 26.64604286064934 33.271561662237836 4.0260074383354905 0 0 0
522 1 27.50911537454092 29.57326518141835 4.377789091661187 0 0 0
681 1 26.456792777416034 33.83520071601339 0.19701827012967346 0 0 1
610 1 29.185714617010138 31.721368452365752 1.6141111968703497 0 0 0
147 1 30.153349739280866 34.09208610394179 4.425546495013289 0 -1 0
504 1 31.116264384789304 30.366064341624053 4.572202126168137 0 0 0
615 1 32.717861212953345 33.07290932666383 1.9779891778426881 0 0 0
105 1 4.670603778659677 0.887593908390787 7.709576620620973 0 0 0
140 1 1.037217069780804 0.23823181444590033 8.08991771128191 1 0 0
81 1 4.6722823478882995 3.9928826858889686 9.642543537750486 0 0 0
156 1 6.394001303613208 3.721291497144657 6.239919004461234 0 0 0
209 1 8.77829919604261 1.1608595834178055 7.639821399686553 0 0 0
164 1 8.343908387925538 4.259413573873013 9.55395782866454 0 0 0
53 1 11.522955718060192 3.9343515920681478 7.919555969990883 0 0 0
40 1 12.33087789838191 0.43850683330611206 8.332778559731482 0 0 0
66 1 15.0360211541501 1.2230118973568793 5.570515716686441 0 0 0
194 1 18.109679128282263 1.6644843221958645 7.546534536645076 0 0 0
97 1 14.927382537367635 2.89112247380598 8.813718196800677 0 0 0
111 1 20.83899442411266 4.182634547742098 7.02106725943233 0 0 0
461 1 21.481626563415478 0.49530906644966455 6.604763326481755 0 1 0
488 1 24.02419498214011 2.6004970566805707 8.407627555966677 0 1 0
530 1 20.74934422695517 2.0062295045930063 9.967315027773491 0 1 0
205 1 26.56821119567825 4.223383259503287 6.288160232857056 0 0 0
136 1 27.315386820496595 0.610104844782554 7.19962471906785 0 0 0
50 1 29.49731432722983 2.909769930189092 9.398310569487915 0 0 0
59 1 30.01221575383484 2.9010089746896077 5.76048670428986 0 0 0
141 1 33.147249072364374 3.0743896063482303 7.67043612720505 0 0 0
161 1 3.9930757695388746 6.722253433908521 7.126218372930924 0 0 0
62 1 1.8663722227437904 9.769273484125403 8.195966322170563 0 0 0
100 1 7.833778459702662 7.015464423793536 6.772860388435741 0 0 0
49 1 5.641250253103931 10.031426437679185 7.605855747717271 0 0 0
120 1 11.448803253678221 7.266650612975744 6.335737534626484 0 0 0
204 1 14.383373881152265 4.930036594761664 5.621765549074071 0 0 0
126 1 13.062379678123005 10.013975932458083 8.74719270317426 0 0 0
131 1 14.538193813819998 8.682073519698733 5.097366300189821 0 0 0
211 1 10.263886852358553 7.5356404365802705 9.826451381093632 0 0 0
78 1 13.980979150406304 6.511881687387048 8.918900910609144 0 0 0
130 1 17.390537466372052 5.307183717594544 7.891549944978113 0 0 0
155 1 16.80812082903698 8.864990246581971 8.180912574639995 0 0 0
71 1 20.46471887020164 7.657129978414689 8.31623127568997 0 0 0
144 1 23.965257460850573 6.51055514562219 7.746620177392226 0 0 0
121 1 22.84598284990537 9.589617337350301 5.951773446802741 0 0 0
216 1 29.278286578741966 6.210711841058019 7.640438227755531 0 0 0
48 1 26.75834406750123 8.925362723971606 8.427963350646607 0 0 0
149 1 29.3221156700841 9.169305201339862 5.343928318116803 0 0 0
181 1 0.18392500344390733 6.476915950943945 7.82437689752884 0 0 0
182 1 32.15465458321086 6.147975577705008 5.416265015667345 0 0 0
143 1 31.71922396818174 8.961177793287957 8.154028947255917 0 0 0
47 1 34.115142841979385 9.599712840836874 5.41795160378296 0 0 0
122 1 1.272881960415476 12.845926858905099 5.44587309019988 1 0 0
166 1 3.208626838735893 13.163280578406097 8.590704974599129 0 0 0
42 1 5.0458636782567865 12.961075466130687 5.2961936729413726 0 0 0
128 1 6.809519909031803 13.377983557468164 8.446641402747622 0 0 0
95 1 8.787752292515783 13.221690094587801 5.2571905484212325 0 0 0
91 1 9.500274286692875 10.262907722838586 7.271595187238851 0 0 0
158 1 12.277875177804756 12.382147570247854 6.156835475435015 0 0 0
43 1 13.848354854853357 14.601286576322794 8.751612848375974 0 0 0
77 1 10.34464318256266 13.442867833336578 9.193240628080728 0 0 0
27 1 15.85058094611725 11.886577743010964 6.361200279244698 0 0 0
32 1 19.36775660790973 10.822464269077607 6.113653554817663 0 0 0
116 1 18.315346390760357 14.030089347708396 7.973510923802025 0 0 0
8 1 16.023749757499623 11.921771437771383 10.110815067495492 0 0 0
72 1 19.550135498687965 10.88351783991203 9.854604853738198 0 0 0
83 1 22.07171973338484 12.903539322916348 7.58407275799203 0 0 0
142 1 24.646470825290226 14.611994977233874 5.4206018994346366 0 0 0
167 1 23.28679750841548 10.058549705871327 9.60243562051959 0 0 0
199 1 26.16528020620252 11.298656079432654 5.671505458311763 0 0 0
3 1 29.28559312058193 12.011793913057554 8.022471474498623 0 0 0
61 1 25.584248734564568 13.180552169589365 8.957888126561924 0 0 0
2 1 32.043034993045005 12.987038239751854 5.144223980042274 0 0 0
193 1 33.745038944500436 12.174558864471463 8.293010900914721 -1 0 0
133 1 0.4891265682506633 15.66945435824653 8.117239342603947 1 0 0
492 1 4.59064912892103 16.643650209989527 8.494857893698782 0 0 0
214 1 2.095711709492169 18.37132786696501 6.189107377430762 0 0 0
612 1 7.948435227171428 16.500233919102076 6.833958104662143 0 0 0
477 1 6.89696795538753 19.637476123834034 5.3418831432506755 0 0 0
28 1 11.363664256757271 15.795419293133786 5.763630489053396 0 0 0
6 1 10.954957503031448 17.117381732570983 9.07659200131502 0 0 0
597 1 10.532353694409005 19.365174955890915 6.058523799335911 0 0 0
135 1 14.020819275910046 18.058920986212886 7.357082451354308 0 0 0
179 1 16.664536247917088 16.88329865491902 9.93463109374885 0 0 0
115 1 17.66498664790079 17.58439647685088 6.506261539190771 0 0 0
89 1 20.860713925559626 15.891162544989614 5.928440013063894 0 0 0
514 1 23.6240030062794 16.449279426303892 8.4500200127244 0 0 0
662 1 20.925274674702358 19.270036134112967 7.646770557019445 0 0 0
18 1 27.807549703877996 15.899557632607314 7.400468576651812 0 0 0
55 1 25.95868112366909 19.393463025428666 8.064757143261133 0 0 0
478 1 29.61482449319301 19.752225454670047 6.410847894247774 0 0 0
589 1 29.616157727932954 18.296584285384853 9.825524850689241 0 0 0
217 1 31.519718051772415 15.399512377105047 7.975520114424786 0 0 0
640 1 33.13169444047987 18.627649963116284 6.990977962099729 0 0 0
502 1 1.6374135897786048 22.060034658120685 5.791292325593218 0 0 0
609 1 4.537807250763302 20.48108330053321 8.132552671367762 0 0 0
532 1 3.505782816275962 24.02175272777577 8.3603020845208 0 0 0
593 1 0.887737943807226 20.420433425395757 9.007121300262886 0 0 0
447 1 5.320176964503595 22.96520568118668 5.271041151398814 0 0 0
625 1 7.209119105252516 23.599656876426238 8.338513421846235 0 0 0
580 1 9.056466151556453 22.684536935094165 5.205433417536272 0 0 0
578 1 8.122460000309138 19.762978461908656 8.864940509766761 0 0 0
566 1 10.899967583796647 23.864469440525404 8.24382963640932 0 0 0
652 1 12.769994942057517 22.256225512688726 5.580711054874715 0 0 0
493 1 12.063707122841441 20.601365847878252 9.207819021623855 0 0 0
557 1 14.255225461265658 23.506237154054094 10.006806966186975 0 0 0
484 1 15.909858713565418 24.094550484773418 6.769521453735922 0 0 0
26 1 15.91825710842941 20.520147579451958 4.9813383969611165 0 0 0
528 1 19.072717306824842 22.221650882423162 6.167660888960266 0 0 0
568 1 16.241015013173044 20.59849607016428 8.590197581043421 0 0 0
546 1 22.73623850256875 21.55801934540156 5.516420021332725 0 0 0
470 1 21.769759466042746 23.00962119248817 8.784819814974687 0 0 0
455 1 25.357114557694143 23.200919278747815 7.382461484302785 0 0 0
466 1 28.67010764485275 23.270056376935194 5.451963116297687 0 0 0
588 1 28.39947169315392 22.028725651087736 9.090183360042131 0 0 0
618 1 34.61524131142319 24.129931778648576 8.341759168916587 -1 0 0
517 1 32.55809699495501 22.256635010335007 5.72536892777308 0 0 0
636 1 30.9080790668031 24.797855106920593 8.077515011187597 0 0 0
584 1 32.01565012344017 21.396931454862617 9.242249797853555 0 0 0
608 1 2.045119081145987 27.352725611803148 7.83833766254428 0 0 0
635 1 5.896929192740787 26.48209991606897 6.2781713883807315 0 0 0
554 1 9.678898150517718 26.34023813246123 5.729316690775401 0 0 0
650 1 8.335116142424386 29.39269492042279 7.2455002024893655 0 0 0
497 1 5.398615462829484 26.700864225307015 9.977198055372277 0 0 0
444 1 9.027651782752057 26.661405096586975 9.60839754546459 0 0 0
459 1 13.375666234594398 26.40857686895521 4.962888402625832 0 0 0
645 1 11.827360656593788 29.441552747730057 6.259439181868968 0 0 0
489 1 13.066036996035592 26.73437873565504 8.574840800520748 0 0 0
511 1 19.45483761761816 25.75043411246039 7.494549079123007 0 0 0
498 1 16.49711751293091 27.781700067282216 6.12041838768922 0 0 0
541 1 18.531480222301283 29.52519252472619 8.648069074184871 0 0 0
513 1 16.581645150994163 26.59133695296962 9.586975590120055 0 0 0
453 1 22.66045985820239 25.414281454240065 5.74291342494674 0 0 0
624 1 19.925378606779816 28.451623599131878 5.114733332699732 0 0 0
567 1 22.12738831531174 29.407973736474933 8.097376059870438 0 0 0
543 1 23.877927514192308 26.294939964875955 9.14439364589143 0 0 0
598 1 26.37909668578337 26.307908715498705 5.6882159565612485 0 0 0
622 1 25.940517185648766 29.25666373653498 7.850055576196802 0 0 0
542 1 29.54075927589865 28.39755866488736 7.643765825573365 0 0 0
474 1 27.497743081172445 25.781780138666022 9.152736312125827 0 0 0
630 1 33.54490781585805 25.801782482082135 5.2154538123686605 0 0 0
627 1 34.62377518321103 29.305815794096972 5.30314142915734 -1 0 0
515 1 33.26249496136046 27.666316605448166 8.392025642771992 0 0 0
11 1 2.843208599025273 32.508040106647016 5.8617785731652585 0 -1 0
656 1 4.736344444102569 29.713313408803117 7.644013399610824 0 0 0
634 1 0.7883842513651339 30.898653017907424 8.504241177540386 0 0 0
653 1 3.802935138250167 32.637942517006174 9.547546473561932 0 0 0
445 1 6.668926529411242 32.73731727174647 7.031210122817438 0 0 0
510 1 10.029477478557165 32.502641540999655 8.39564632762321 0 0 0
446 1 13.379609909923744 32.67526048968676 5.811176066724566 0 0 0
626 1 14.75051323466446 30.122436477834736 8.517525650392871 0 0 0
7 1 17.0106769419413 31.712029568861354 6.022406997734079 0 -1 0
145 1 15.670449680765254 33.86597239777011 8.621185334457383 0 -1 0
533 1 19.311059153226562 33.21262343848631 8.946744186688138 0 0 0
545 1 20.63858991731244 31.88325691012642 5.715016360234178 0 0 0
76 1 24.301035850153234 32.404870926968044 6.696233435882801 0 -1 0
629 1 22.917904432544333 33.84899781684557 9.764813965895776 0 0 0
536 1 28.55319547130646 31.929542626547807 7.043581998614497 0 0 0
537 1 26.29292504052939 32.5402710134482 9.86094514581436 0 0 0
661 1 33.80377022384949 32.94462344988779 5.619333182422786 0 0 0
467 1 31.95421634752585 31.046953852957028 8.143968094925885 0 0 0
31 1 31.134482598921863 34.71666309473469 7.896763303057301 0 -1 0
110 1 1.0771724065174246 3.393929875691228 10.152885406262715 0 0 0
190 1 3.109294983149116 4.123850817227402 13.418369200913375 0 0 0
195 1 3.5217858868142096 0.8522492545808252 11.48309695312964 0 0 0
186 1 0.4973666324727144 1.0202561741345637 13.489782661070679 0 0 0
411 1 6.557661077513273 2.6773788521670068 12.455348774360855 0 0 0
137 1 9.470742685801158 2.926678768111152 14.64618975940515 0 0 0
21 1 10.080934467889373 1.274086600474297 11.289297138832342 0 0 0
168 1 13.017247314216313 3.094346036720576 14.781641537324143 0 0 0
112 1 11.819424636968744 4.642293222588759 11.614739694261432 0 0 0
35 1 13.791013452306293 1.268459705017299 11.795309342279632 0 0 0
602 1 16.46798185900932 2.5476099300413058 14.328591347915037 0 1 0
106 1 15.62261230627069 4.902573742953047 11.743176209697287 0 0 0
210 1 17.40621845295574 1.0427350554249033 11.171665330213832 0 0 0
85 1 19.943348946544848 2.642425891008507 13.562368266317218 0 0 0
5 1 22.909899234618408 5.072021801865601 10.858388771730262 0 0 0
12 1 23.272355505929813 1.821952031614488 12.557640489664642 0 0 0
23 1 26.040579540979664 0.6862997183060887 14.43178922623445 0 0 0
101 1 25.91003144952181 4.445265919443391 13.524116527784509 0 0 0
218 1 26.639353479983594 5.115664791812581 9.97499001488356 0 0 0
104 1 26.419620537299725 1.3455339698883553 10.792549513268153 0 0 0
682 1 29.388267971885583 0.9175798717231625 12.783682482199067 0 1 0
19 1 34.25076935138097 4.731352647296832 13.118102582333174 0 0 0
188 1 29.800989044762787 4.583450013594929 12.779930489576666 0 0 0
124 1 32.50053888037523 2.076820681383892 11.28297189769989 0 0 0
67 1 2.614141214854385 6.832235158989358 10.626323163023834 0 0 0
79 1 1.3215181445332536 7.801117034463756 13.84157994939593 0 0 0
45 1 4.955731545657397 7.351855859212227 13.637061354768884 0 0 0
118 1 6.335499093444782 7.3112002928192386 10.11398813474468 0 0 0
174 1 8.37219644181708 5.95599931475875 12.81443987506347 0 0 0
98 1 13.533857569426159 8.200694257980484 12.144520016620945 0 0 0
438 1 10.139248517435979 9.223447823610762 13.133941970547179 0 0 0
117 1 18.571746964810107 5.829772673049793 14.598646087358302 0 0 0
138 1 19.204963789383008 5.134276357302737 10.975016435115986 0 0 0
96 1 17.31151074275013 8.302105464154163 11.888031783760015 0 0 0
175 1 21.071909957770245 8.073670886076242 12.040327574466133 0 0 0
184 1 22.261906180548774 5.355268072527138 14.394323945549548 0 0 0
178 1 25.243957910915107 7.939561337394856 11.84250133749539 0 0 0
208 1 27.991853533723948 7.459637727095486 14.245786125526905 0 0 0
129 1 29.366200887235586 8.021252170777139 10.922003198036371 0 0 0
150 1 32.1485525818489 5.672474179953091 10.112356311924493 -1 0 0
109 1 31.974993113510138 7.555374105086625 13.556476724115736 0 0 0
58 1 34.19793400984312 8.73939874863913 10.81935910075292 0 0 0
173 1 3.057015320798847 11.052396950461224 14.272233934930249 1 0 0
24 1 1.0904911456597877 12.01060329145236 11.279762058650649 0 0 0
93 1 4.2688607814678825 10.16801859138222 10.991066272388572 0 0 0
107 1 0.8933413299606443 13.975421726509989 14.382016447467894 1 0 0
108 1 5.138385636994862 13.65242818271376 11.864782976826023 0 0 0
46 1 6.6805638539670795 10.480093698339537 13.89546777106944 0 0 0
132 1 8.008892803978188 10.622255707492078 10.519046254257715 0 0 0
30 1 8.712838862283434 13.300045203336285 12.974800616084284 0 0 0
38 1 12.366664303673454 11.89943654492799 11.885384193123182 0 0 0
565 1 14.925815199042752 14.651224076719402 12.345412201011989 0 0 0
33 1 15.620049717346319 11.139775103462581 13.608955305272433 0 0 0
102 1 19.360933679237345 11.077354488701204 13.558951312774512 0 0 0
146 1 18.59300469958005 14.490948815010288 12.4112649156499 0 0 0
191 1 21.690265877995657 13.69739385937352 14.748189268370318 0 0 0
41 1 23.190427757225407 10.678105595735705 13.33529401314407 0 0 0
70 1 21.89866757974635 13.379684114367263 11.11249636657199 0 0 0
39 1 27.512114789940973 11.182112266793288 11.448753699892997 0 0 0
183 1 25.11283762831964 13.790060674816244 12.65569488218007 0 0 0
103 1 29.416990170546438 14.504467665051628 10.887599588349142 0 0 0
25 1 28.26894388550493 14.111419513374008 14.366865117349082 0 0 0
203 1 29.95546751325476 10.569110500977631 14.228615568401322 0 0 0
154 1 33.85490050010707 10.707908530853127 14.051598819958615 0 0 0
57 1 31.500406426646656 11.359583973131132 11.078460113864622 0 0 0
13 1 33.341413281518996 14.693526853003629 11.11640273879459 0 0 0
113 1 31.870715738939857 13.796384755012504 14.210876849120803 0 0 0
127 1 2.160299385624043 15.748003415837058 11.344208040688951 1 0 0
65 1 3.556381709373291 16.553330027727142 14.722641923353972 0 0 0
663 1 2.069842716459489 19.249783824967615 12.389411534373657 0 0 0
172 1 7.839831143744293 16.048374337844727 10.623130563824468 0 0 0
17 1 7.341197077677837 16.875399861491402 14.233076146083055 0 0 0
526 1 5.567578850246406 18.754226623186813 11.51359228246592 0 0 0
454 1 9.77165829173961 18.85671271653149 12.049894260890634 0 0 0
213 1 11.391751794037212 15.522989751864301 12.341979778532512 0 0 0
162 1 13.693832234135288 18.23442510436327 11.5647289224952 0 0 0
575 1 16.9510859597434 17.753696440499322 13.590043089634891 0 0 0
452 1 19.088123042761136 19.740640625633425 10.820260389478184 0 0 0
123 1 20.321391781043243 16.444510649825887 9.848710840185415 0 0 0
134 1 22.771793107101715 16.747533430922545 12.731406816953339 0 0 0
607 1 20.373779638383535 19.426825473887444 14.250751854237267 0 0 0
594 1 23.104730932648977 19.786540410754256 10.606548507307586 0 0 0
187 1 26.384344138488604 16.670211606808003 10.77605148909423 0 0 0
198 1 26.21649146214546 17.33522931620301 14.352414529097347 0 0 0
558 1 30.154047642402794 17.196804770734694 13.510499268821269 0 0 0
36 1 33.96372008482838 17.159038576006633 14.20316481687973 -1 0 0
201 1 33.2323858066809 18.329779409664233 10.83887601060963 0 0 0
641 1 3.4143388448019123 22.021398597764716 14.622007182409991 0 0 0
643 1 1.6554957293482107 22.964253169602554 11.42947646059263 0 0 0
539 1 0.4733489854518678 24.493045654586158 14.619342291407845 0 0 0
619 1 5.357910921220419 22.467618702344488 11.330949422412282 0 0 0
465 1 9.200751354789922 22.427920149032467 11.201654622140776 0 0 0
642 1 7.37221825776549 20.844875191330004 14.066141953976587 0 0 0
595 1 12.312867411823008 21.440637974798207 12.782633234247431 0 0 0
487 1 18.196173665376538 23.31512195690014 10.011585769535753 0 0 0
538 1 15.956096229332744 21.138063544113415 12.22888156433447 0 0 0
637 1 20.960213515384083 22.53976484930682 12.403822757610092 0 0 0
587 1 23.27685935387378 24.73348628175714 14.119349983516265 0 0 0
648 1 23.93481253592695 20.735075760775146 14.176991246986345 0 0 0
456 1 24.81066764398796 23.16693201554794 11.0372652749138 0 0 0
529 1 26.867220737895497 20.16644950774982 11.905435658305073 0 0 0
509 1 26.686884382284543 23.302377424437037 14.209264871421826 0 0 0
583 1 29.229575414834787 24.146856229935153 11.89503228958192 0 0 0
499 1 34.01698941076857 21.127884136871895 13.556533013057555 -1 0 0
531 1 30.493057421341348 20.76702644313618 12.552096065518608 0 0 0
500 1 32.84175267595328 24.115989244174614 11.58672980340923 0 0 0
495 1 3.8199134894377793 25.381653447440325 13.127513081800569 0 0 0
590 1 3.092749206687059 29.37433124641872 10.926587566284846 0 0 0
561 1 2.055597570466221 28.465886207708472 14.254695484868487 0 0 0
556 1 0.7240308639731106 26.592342518067756 11.261043727754673 0 0 0
586 1 7.532690494633378 25.21439863080801 12.801717818948918 0 0 0
457 1 5.721432881289929 28.4488071619748 13.29624962042529 0 0 0
601 1 9.623435766156547 28.327298738185814 12.954789628496364 0 0 0
646 1 11.632170975001543 25.238480042414743 11.938433556843108 0 0 0
494 1 11.259456233792095 29.549810231288337 9.992632764637337 0 0 0
519 1 12.648185659206915 27.14860946628941 14.949171858368222 0 0 0
505 1 14.257873235904688 28.304639405207162 11.81036480986784 0 0 0
521 1 19.57461681838993 25.392790019193523 14.508013302057327 0 0 0
591 1 16.251457265799154 24.972053204415175 12.815174950057147 0 0 0
480 1 18.167247276783485 28.276108482867496 12.567509829629534 0 0 0
472 1 20.665759601109333 26.05931656551938 10.955349614150895 0 0 0
482 1 24.241751837648778 29.582134458838468 11.102778184200156 0 0 0
501 1 21.928806439908225 28.16796751925126 13.730518331068348 0 0 0
592 1 26.004292148706195 26.530056668454435 12.427780856847567 0 0 0
576 1 25.29145269838365 29.50209592783007 14.62461618758752 0 0 0
573 1 29.117444898857443 26.728994676542435 14.579875509492428 0 0 0
623 1 27.920282747486475 29.38531288188236 11.003540846070143 0 0 0
507 1 30.796984381485135 27.27645297218606 11.004284448156154 0 0 0
464 1 32.853523006150965 27.12442144400228 13.963910872074525 0 0 0
491 1 4.996618037986644 32.275506898049215 13.150488451222778 0 0 0
548 1 1.3975078623256076 32.27728727442101 12.493165733137554 0 0 0
508 1 6.977781985034974 30.398584392209425 10.478653100506401 0 0 0
657 1 6.94949206268213 34.271940580919946 10.480526114252743 0 0 0
485 1 9.64838413204589 32.27387574270458 12.066158078860818 0 0 0
75 1 7.757600317770656 34.485268612073476 14.25922895774457 0 -1 0
506 1 11.644517995427966 34.415238412639766 14.404031553322522 0 0 0
620 1 12.333545539002804 30.753038508840206 13.971999647870344 0 0 0
596 1 13.163643508249976 32.56645862082489 10.932186133668473 0 0 0
476 1 18.85002289177753 31.634852300520496 14.501922267952581 0 0 0
600 1 16.838218205937974 31.567585080832668 11.355881740758296 0 0 0
628 1 15.401118378835253 33.53244144782735 14.187792659698383 0 0 0
632 1 15.7156943173381 29.76497281789941 14.8392336094841 0 0 0
490 1 20.39822427992142 34.09459001916305 12.473557397631465 0 0 0
527 1 20.755967734883715 30.69935225951087 11.341469404643112 0 0 0
582 1 23.739166582162607 32.65728607943318 13.143625597104979 0 0 0
606 1 27.37991992897199 32.191575848988826 13.351141317569889 0 0 0
479 1 29.94950205995443 32.58364608756754 10.780981291153466 0 0 0
552 1 33.50112585364619 29.867760024991973 11.468357435300625 0 0 0
516 1 30.47994176347803 30.167390760445908 13.783252554530945 0 0 0
660 1 32.162114531428564 33.55865754336421 13.850752074252117 -1 0 0
658 1 33.52582078495231 33.482553550723054 10.41680023804013 0 0 0
9 1 4.258144816441 0.9973868227215077 15.227370361725406 0 0 0
603 1 1.1413188928325095 2.9198984788325504 16.615293174317085 0 1 0
377 1 4.416419352411018 3.2137063092765423 18.521971442415463 0 0 0
272 1 2.6981011495030964 34.65766512802182 18.51790498754817 0 -1 0
165 1 6.249419283563529 4.512125380624444 15.647728704694929 0 0 0
340 1 9.262988145049404 4.694833116765905 17.941960587159134 0 0 0
420 1 7.470308633400748 1.4317398285978231 17.525499574163174 0 0 0
338 1 14.762881489237657 0.9086773614359451 17.19259382186361 0 0 0
274 1 11.20220233849797 1.4642475488665623 17.64109578631581 0 0 0
292 1 12.963538513119362 4.697882062296389 18.013057433609063 0 0 0
822 1 18.43298161322253 0.16710432074631587 16.205687320752304 0 1 0
197 1 16.582226971704337 4.1042859753412175 17.60063811365053 0 0 0
308 1 17.10430324815667 0.03269369414575859 19.79528484088525 0 0 0
171 1 20.413297108002887 3.3030789006756973 17.066264462190617 0 0 0
613 1 22.191263038755206 0.05160510434768596 15.758230620038317 0 1 0
60 1 24.193165865184092 3.062683186617346 16.48440323051409 0 0 0
219 1 22.486191452429352 1.2488237252052081 19.519547705485955 0 0 0
15 1 28.520592587141955 2.9296179017381467 15.912473169323532 0 0 0
408 1 26.6048663679956 0.9592293277057891 18.308864413881743 0 0 0
328 1 28.85183472507454 3.71893137985301 19.740355484270555 0 0 0
322 1 32.18322751733651 2.5180535769886143 15.186397024937891 0 0 0
370 1 32.478193791423735 4.305219753848682 19.089327313814046 0 0 0
382 1 31.020298043987886 1.007552698271432 18.32511478630828 0 0 0
238 1 3.1172801323513637 6.294205606800577 16.791541956378033 0 0 0
332 1 1.1167018763623295 9.495810488031173 17.06068186461859 1 0 0
387 1 8.113500830863778 7.832185791067071 16.001859758888415 0 0 0
330 1 6.239392149879624 6.610879133027868 18.875086018899808 0 0 0