
.Version 10.0.9 of ABINIT, released Sep 2024.
.(MPI version, prepared for a x86_64_linux_intel2021.6 computer) 

.Copyright (C) 1998-2024 ABINIT group . 
 ABINIT comes with ABSOLUTELY NO WARRANTY.
 It is free software, and you are welcome to redistribute it
 under certain conditions (GNU General Public License,
 see ~abinit/COPYING or http://www.gnu.org/copyleft/gpl.txt).

 ABINIT is a project of the Universite Catholique de Louvain,
 Corning Inc. and other collaborators, see ~abinit/doc/developers/contributors.txt .
 Please read https://docs.abinit.org/theory/acknowledgments for suggested
 acknowledgments of the ABINIT effort.
 For more information, see https://www.abinit.org .

.Starting date : Mon  8 Dec 2025.
- ( at 16h16 )
  
- input  file    -> ab.in
- output file    -> ab.abo
- root for input  files -> abi
- root for output files -> abo
 
 Symmetries : space group P1 (#  1); Bravais aP (primitive triclinic)
================================================================================
 Values of the parameters that define the memory need of the present run
     intxc =       0    ionmov =       0      iscf =       7    lmnmax =       6
     lnmax =       6     mgfft =     120  mpssoang =       3    mqgrid =    5171
     natom =      54  nloc_mem =       1    nspden =       1   nspinor =       1
    nsppol =       1      nsym =       1    n1xccc =    2501    ntypat =       2
    occopt =       1   xclevel =       2
-    mband =         280        mffmem =           1         mkmem =           1
       mpw =        1253          nfft =      135000          nkpt =           5
================================================================================
P This job should need less than                      71.205 Mbytes of memory.
  Rough estimation (10% accuracy) of disk space for files :
_ WF disk file :    133.837 Mbytes ; DEN or POT disk file :      1.032 Mbytes.
================================================================================
 
--------------------------------------------------------------------------------
------------- Echo of variables that govern the present computation ------------
--------------------------------------------------------------------------------
-
- outvars: echo of selected default values                                      
-   iomode0 =  0 , fftalg0 =512 , wfoptalg0 =  0
-
- outvars: echo of global parameters not present in the input file              
-  max_nthreads =    0
-
 -outvars: echo values of preprocessed input variables --------
-          iomode           1
            acell      1.0000000000E+00  1.0000000000E+00  1.0000000000E+00 Bohr
              amu      9.59400000E+01  3.20660000E+01
           bandpp          14
          chkprim           0
     densfor_pred           6
           diemac      1.20000000E+01
             ecut      2.00000000E+01 Hartree
-          fftalg         401
           istwfk        2    0    0    0    0
              ixc          11
              kpt      0.00000000E+00  0.00000000E+00  0.00000000E+00
                       3.33333333E-01  0.00000000E+00  0.00000000E+00
                       0.00000000E+00  3.33333333E-01  0.00000000E+00
                       3.33333333E-01  3.33333333E-01  0.00000000E+00
                      -3.33333333E-01  3.33333333E-01  0.00000000E+00
         kptrlatt        3    0    0      0    3    0      0    0    1
          kptrlen      2.56852226E+01
P           mkmem           1
            natom          54
            nband         280
            ngfft          75      75     120
             nkpt           5
    nblock_lobpcg           4
-          npband           5
-           npfft           5
-        np_spkpt           5
            nstep         100
             nsym           1
           ntypat           2
              occ      2.000000  2.000000  2.000000  2.000000  2.000000  2.000000
                       2.000000  2.000000  2.000000  2.000000  2.000000  2.000000
                       2.000000  2.000000  2.000000  2.000000  2.000000  2.000000
                       2.000000  2.000000  2.000000  2.000000  2.000000  2.000000
                       2.000000  2.000000  2.000000  2.000000  2.000000  2.000000
                       2.000000  2.000000  2.000000  2.000000  2.000000  2.000000
                       2.000000  2.000000  2.000000  2.000000  2.000000  2.000000
                       2.000000  2.000000  2.000000  2.000000  2.000000  2.000000
                       2.000000  2.000000  2.000000  2.000000  2.000000  2.000000
                       2.000000  2.000000  2.000000  2.000000  2.000000  2.000000
                       2.000000  2.000000  2.000000  2.000000  2.000000  2.000000
                       2.000000  2.000000  2.000000  2.000000  2.000000  2.000000
                       2.000000  2.000000  2.000000  2.000000  2.000000  2.000000
                       2.000000  2.000000  2.000000  2.000000  2.000000  2.000000
                       2.000000  2.000000  2.000000  2.000000  2.000000  2.000000
                       2.000000  2.000000  2.000000  2.000000  2.000000  2.000000
                       2.000000  2.000000  2.000000  2.000000  2.000000  2.000000
                       2.000000  2.000000  2.000000  2.000000  2.000000  2.000000
                       2.000000  2.000000  2.000000  2.000000  2.000000  2.000000
                       2.000000  2.000000  2.000000  2.000000  2.000000  2.000000
                       2.000000  2.000000  2.000000  2.000000  2.000000  2.000000
                       2.000000  2.000000  2.000000  2.000000  2.000000  2.000000
                       2.000000  2.000000  2.000000  2.000000  2.000000  2.000000
                       2.000000  2.000000  2.000000  2.000000  2.000000  2.000000
                       2.000000  2.000000  2.000000  2.000000  2.000000  2.000000
                       2.000000  2.000000  2.000000  2.000000  2.000000  2.000000
                       2.000000  2.000000  2.000000  2.000000  2.000000  2.000000
                       2.000000  2.000000  2.000000  2.000000  2.000000  2.000000
                       2.000000  2.000000  2.000000  2.000000  2.000000  2.000000
                       2.000000  2.000000  2.000000  2.000000  2.000000  2.000000
                       2.000000  2.000000  2.000000  2.000000  2.000000  2.000000
                       2.000000  2.000000  2.000000  2.000000  2.000000  2.000000
                       2.000000  2.000000  2.000000  2.000000  2.000000  2.000000
                       2.000000  2.000000  2.000000  2.000000  2.000000  2.000000
                       2.000000  2.000000  2.000000  2.000000  2.000000  2.000000
                       2.000000  2.000000  2.000000  2.000000  2.000000  2.000000
                       2.000000  2.000000  2.000000  2.000000  2.000000  2.000000
                       2.000000  2.000000  2.000000  2.000000  2.000000  2.000000
                       2.000000  2.000000  2.000000  2.000000  2.000000  2.000000
                       0.000000  0.000000  0.000000  0.000000  0.000000  0.000000
                       0.000000  0.000000  0.000000  0.000000  0.000000  0.000000
                       0.000000  0.000000  0.000000  0.000000  0.000000  0.000000
                       0.000000  0.000000  0.000000  0.000000  0.000000  0.000000
                       0.000000  0.000000  0.000000  0.000000  0.000000  0.000000
                       0.000000  0.000000  0.000000  0.000000  0.000000  0.000000
                       0.000000  0.000000  0.000000  0.000000  0.000000  0.000000
                       0.000000  0.000000  0.000000  0.000000
           ortalg          -2
        paral_kgb           1
           prtden           0
        prtposcar           1
            prtwf           0
            rprim      9.0560300050E+00 -1.5685504084E+01  0.0000000000E+00
                       9.0560300050E+00  1.5685504084E+01  0.0000000000E+00
                       0.0000000000E+00  0.0000000000E+00  2.5685222633E+01
          spgroup           1
           toldfe      1.00000000E-09 Hartree
           tolsym      1.00000000E-08
            typat      1  1  1  1  1  1  1  1  1  1  1  1  1  1  1  1  1  1  2  2
                       2  2  2  2  2  2  2  2  2  2  2  2  2  2  2  2  2  2  2  2
                       2  2  2  2  2  2  2  2  2  2  2  2  2  2
         wfoptalg         114
              wtk        0.11111    0.22222    0.22222    0.22222    0.22222
           xangst      1.6004644689E+00 -9.2754993882E-01  3.4066579826E+00
                       3.1948297860E+00 -3.6890716739E+00  3.3980086037E+00
                       4.7922446790E+00 -6.4558754293E+00  3.3980086037E+00
                       3.1948297860E+00  1.8445358369E+00  3.3980086037E+00
                       4.7922446790E+00 -9.2226791849E-01  3.3980086037E+00
                       6.3896595720E+00 -3.6890716739E+00  3.3980086037E+00
                       4.7922446790E+00  4.6113395923E+00  3.3980086037E+00
                       6.3896595720E+00  1.8445358369E+00  3.3980086037E+00
                       7.9870744650E+00 -9.2226791849E-01  3.3980086037E+00
                       1.5974148930E+00  9.2226791849E-01  1.0194025811E+01
                       3.1948297860E+00 -1.8445358369E+00  1.0194025811E+01
                       4.7922446790E+00 -4.6113395923E+00  1.0194025811E+01
                       3.1948297860E+00  3.6890716739E+00  1.0194025811E+01
                       4.7922446790E+00  9.2226791849E-01  1.0194025811E+01
                       6.3896595720E+00 -1.8445358369E+00  1.0194025811E+01
                       4.7922446790E+00  6.4558754293E+00  1.0194025811E+01
                       6.3896595720E+00  3.6890716739E+00  1.0194025811E+01
                       7.9870744650E+00  9.2226791849E-01  1.0194025811E+01
                       1.5974148930E+00 -9.2226791849E-01  8.6340852357E+00
                       3.1948297860E+00 -3.6890716739E+00  8.6340852357E+00
                       4.7922446790E+00 -6.4558754293E+00  8.6340852357E+00
                       3.1948297860E+00  1.8445358369E+00  8.6340852357E+00
                       4.7922446790E+00 -9.2226791849E-01  8.6340852357E+00
                       6.3896595720E+00 -3.6890716739E+00  8.6340852357E+00
                       4.7922446790E+00  4.6113395923E+00  8.6340852357E+00
                       6.3896595720E+00  1.8445358369E+00  8.6340852357E+00
                       7.9870744650E+00 -9.2226791849E-01  8.6340852357E+00
                       1.5974148930E+00  9.2226791849E-01  4.9579491792E+00
                       3.1948297860E+00 -1.8445358369E+00  4.9579491792E+00
                       4.7922446790E+00 -4.6113395923E+00  4.9579491792E+00
                       3.1948297860E+00  3.6890716739E+00  4.9579491792E+00
                       4.7922446790E+00  9.2226791849E-01  4.9579491792E+00
                       6.3896595720E+00 -1.8445358369E+00  4.9579491792E+00
                       4.7922446790E+00  6.4558754293E+00  4.9579491792E+00
                       6.3896595720E+00  3.6890716739E+00  4.9579491792E+00
                       7.9870744650E+00  9.2226791849E-01  4.9579491792E+00
                       1.5974148930E+00 -9.2226791849E-01  1.1753966387E+01
                       3.1948297860E+00 -3.6890716739E+00  1.1753966387E+01
                       4.7922446790E+00 -6.4558754293E+00  1.1753966387E+01
                       3.1948297860E+00  1.8445358369E+00  1.1753966387E+01
                       4.7922446790E+00 -9.2226791849E-01  1.1753966387E+01
                       6.3896595720E+00 -3.6890716739E+00  1.1753966387E+01
                       4.7922446790E+00  4.6113395923E+00  1.1753966387E+01
                       6.3896595720E+00  1.8445358369E+00  1.1753966387E+01
                       7.9870744650E+00 -9.2226791849E-01  1.1753966387E+01
                       1.5974148930E+00  9.2226791849E-01  1.8380680282E+00
                       3.1948297860E+00 -1.8445358369E+00  1.8380680282E+00
                       4.7922446790E+00 -4.6113395923E+00  1.8380680282E+00
                       3.1948297860E+00  3.6890716739E+00  1.8380680282E+00
                       4.7922446790E+00  9.2226791849E-01  1.8380680282E+00
                       6.3896595720E+00 -1.8445358369E+00  1.8380680282E+00
                       4.7922446790E+00  6.4558754293E+00  1.8380680282E+00
                       6.3896595720E+00  3.6890716739E+00  1.8380680282E+00
                       7.9870744650E+00  9.2226791849E-01  1.8380680282E+00
            xcart      3.0244395315E+00 -1.7528153590E+00  6.4376506156E+00
                       6.0373533367E+00 -6.9713351483E+00  6.4213056582E+00
                       9.0560300050E+00 -1.2199836509E+01  6.4213056582E+00
                       6.0373533367E+00  3.4856675741E+00  6.4213056582E+00
                       9.0560300050E+00 -1.7428337871E+00  6.4213056582E+00
                       1.2074706673E+01 -6.9713351483E+00  6.4213056582E+00
                       9.0560300050E+00  8.7141689353E+00  6.4213056582E+00
                       1.2074706673E+01  3.4856675741E+00  6.4213056582E+00
                       1.5093383342E+01 -1.7428337871E+00  6.4213056582E+00
                       3.0186766683E+00  1.7428337871E+00  1.9263916975E+01
                       6.0373533367E+00 -3.4856675741E+00  1.9263916975E+01
                       9.0560300050E+00 -8.7141689353E+00  1.9263916975E+01
                       6.0373533367E+00  6.9713351483E+00  1.9263916975E+01
                       9.0560300050E+00  1.7428337871E+00  1.9263916975E+01
                       1.2074706673E+01 -3.4856675741E+00  1.9263916975E+01
                       9.0560300050E+00  1.2199836509E+01  1.9263916975E+01
                       1.2074706673E+01  6.9713351483E+00  1.9263916975E+01
                       1.5093383342E+01  1.7428337871E+00  1.9263916975E+01
                       3.0186766683E+00 -1.7428337871E+00  1.6316056503E+01
                       6.0373533367E+00 -6.9713351483E+00  1.6316056503E+01
                       9.0560300050E+00 -1.2199836509E+01  1.6316056503E+01
                       6.0373533367E+00  3.4856675741E+00  1.6316056503E+01
                       9.0560300050E+00 -1.7428337871E+00  1.6316056503E+01
                       1.2074706673E+01 -6.9713351483E+00  1.6316056503E+01
                       9.0560300050E+00  8.7141689353E+00  1.6316056503E+01
                       1.2074706673E+01  3.4856675741E+00  1.6316056503E+01
                       1.5093383342E+01 -1.7428337871E+00  1.6316056503E+01
                       3.0186766683E+00  1.7428337871E+00  9.3691661295E+00
                       6.0373533367E+00 -3.4856675741E+00  9.3691661295E+00
                       9.0560300050E+00 -8.7141689353E+00  9.3691661295E+00
                       6.0373533367E+00  6.9713351483E+00  9.3691661295E+00
                       9.0560300050E+00  1.7428337871E+00  9.3691661295E+00
                       1.2074706673E+01 -3.4856675741E+00  9.3691661295E+00
                       9.0560300050E+00  1.2199836509E+01  9.3691661295E+00
                       1.2074706673E+01  6.9713351483E+00  9.3691661295E+00
                       1.5093383342E+01  1.7428337871E+00  9.3691661295E+00
                       3.0186766683E+00 -1.7428337871E+00  2.2211777446E+01
                       6.0373533367E+00 -6.9713351483E+00  2.2211777446E+01
                       9.0560300050E+00 -1.2199836509E+01  2.2211777446E+01
                       6.0373533367E+00  3.4856675741E+00  2.2211777446E+01
                       9.0560300050E+00 -1.7428337871E+00  2.2211777446E+01
                       1.2074706673E+01 -6.9713351483E+00  2.2211777446E+01
                       9.0560300050E+00  8.7141689353E+00  2.2211777446E+01
                       1.2074706673E+01  3.4856675741E+00  2.2211777446E+01
                       1.5093383342E+01 -1.7428337871E+00  2.2211777446E+01
                       3.0186766683E+00  1.7428337871E+00  3.4734451870E+00
                       6.0373533367E+00 -3.4856675741E+00  3.4734451870E+00
                       9.0560300050E+00 -8.7141689353E+00  3.4734451870E+00
                       6.0373533367E+00  6.9713351483E+00  3.4734451870E+00
                       9.0560300050E+00  1.7428337871E+00  3.4734451870E+00
                       1.2074706673E+01 -3.4856675741E+00  3.4734451870E+00
                       9.0560300050E+00  1.2199836509E+01  3.4734451870E+00
                       1.2074706673E+01  6.9713351483E+00  3.4734451870E+00
                       1.5093383342E+01  1.7428337871E+00  3.4734451870E+00
             xred      2.2285857868E-01  1.1111111111E-01  2.5063635646E-01
                       5.5555555556E-01  1.1111111111E-01  2.5000000000E-01
                       8.8888888889E-01  1.1111111111E-01  2.5000000000E-01
                       2.2222222222E-01  4.4444444444E-01  2.5000000000E-01
                       5.5555555556E-01  4.4444444444E-01  2.5000000000E-01
                       8.8888888889E-01  4.4444444444E-01  2.5000000000E-01
                       2.2222222222E-01  7.7777777778E-01  2.5000000000E-01
                       5.5555555556E-01  7.7777777778E-01  2.5000000000E-01
                       8.8888888889E-01  7.7777777778E-01  2.5000000000E-01
                       1.1111111111E-01  2.2222222222E-01  7.5000000000E-01
                       4.4444444444E-01  2.2222222222E-01  7.5000000000E-01
                       7.7777777778E-01  2.2222222222E-01  7.5000000000E-01
                       1.1111111111E-01  5.5555555556E-01  7.5000000000E-01
                       4.4444444444E-01  5.5555555556E-01  7.5000000000E-01
                       7.7777777778E-01  5.5555555556E-01  7.5000000000E-01
                       1.1111111111E-01  8.8888888889E-01  7.5000000000E-01
                       4.4444444444E-01  8.8888888889E-01  7.5000000000E-01
                       7.7777777778E-01  8.8888888889E-01  7.5000000000E-01
                       2.2222222222E-01  1.1111111111E-01  6.3523126650E-01
                       5.5555555556E-01  1.1111111111E-01  6.3523126650E-01
                       8.8888888889E-01  1.1111111111E-01  6.3523126650E-01
                       2.2222222222E-01  4.4444444444E-01  6.3523126650E-01
                       5.5555555556E-01  4.4444444444E-01  6.3523126650E-01
                       8.8888888889E-01  4.4444444444E-01  6.3523126650E-01
                       2.2222222222E-01  7.7777777778E-01  6.3523126650E-01
                       5.5555555556E-01  7.7777777778E-01  6.3523126650E-01
                       8.8888888889E-01  7.7777777778E-01  6.3523126650E-01
                       1.1111111111E-01  2.2222222222E-01  3.6476873350E-01
                       4.4444444444E-01  2.2222222222E-01  3.6476873350E-01
                       7.7777777778E-01  2.2222222222E-01  3.6476873350E-01
                       1.1111111111E-01  5.5555555556E-01  3.6476873350E-01
                       4.4444444444E-01  5.5555555556E-01  3.6476873350E-01
                       7.7777777778E-01  5.5555555556E-01  3.6476873350E-01
                       1.1111111111E-01  8.8888888889E-01  3.6476873350E-01
                       4.4444444444E-01  8.8888888889E-01  3.6476873350E-01
                       7.7777777778E-01  8.8888888889E-01  3.6476873350E-01
                       2.2222222222E-01  1.1111111111E-01  8.6476873350E-01
                       5.5555555556E-01  1.1111111111E-01  8.6476873350E-01
                       8.8888888889E-01  1.1111111111E-01  8.6476873350E-01
                       2.2222222222E-01  4.4444444444E-01  8.6476873350E-01
                       5.5555555556E-01  4.4444444444E-01  8.6476873350E-01
                       8.8888888889E-01  4.4444444444E-01  8.6476873350E-01
                       2.2222222222E-01  7.7777777778E-01  8.6476873350E-01
                       5.5555555556E-01  7.7777777778E-01  8.6476873350E-01
                       8.8888888889E-01  7.7777777778E-01  8.6476873350E-01
                       1.1111111111E-01  2.2222222222E-01  1.3523126650E-01
                       4.4444444444E-01  2.2222222222E-01  1.3523126650E-01
                       7.7777777778E-01  2.2222222222E-01  1.3523126650E-01
                       1.1111111111E-01  5.5555555556E-01  1.3523126650E-01
                       4.4444444444E-01  5.5555555556E-01  1.3523126650E-01
                       7.7777777778E-01  5.5555555556E-01  1.3523126650E-01
                       1.1111111111E-01  8.8888888889E-01  1.3523126650E-01
                       4.4444444444E-01  8.8888888889E-01  1.3523126650E-01
                       7.7777777778E-01  8.8888888889E-01  1.3523126650E-01
            znucl       42.00000   16.00000
 
================================================================================
 
 chkinp: Checking input parameters for consistency.
 
================================================================================
== DATASET  1 ==================================================================
-   mpi_nproc: 125, omp_nthreads: -1 (-1 if OMP is not activated)
 

--- !DatasetInfo
iteration_state: {dtset: 1, }
dimensions: {natom: 54, nkpt: 5, mband: 280, nsppol: 1, nspinor: 1, nspden: 1, mpw: 1253, }
cutoff_energies: {ecut:  20.0, pawecutdg:  -1.0, }
electrons: {nelect:   4.68000000E+02, charge:   0.00000000E+00, occopt:   1.00000000E+00, tsmear:   1.00000000E-02, }
meta: {optdriver: 0, ionmov: 0, optcell: 0, iscf: 7, paral_kgb: 1, }
...

 mkfilename: getden from: ../superc/superc_DEN
 
 Exchange-correlation functional for the present dataset will be:
  GGA: Perdew-Burke-Ernzerhof functional - ixc=11
 Citation for XC functional:
  J.P.Perdew, K.Burke, M.Ernzerhof, PRL 77, 3865 (1996)
 
 Real(R)+Recip(G) space primitive vectors, cartesian coordinates (Bohr,Bohr^-1):
 R(1)=  9.0560300-15.6855041  0.0000000  G(1)=  0.0552118 -0.0318766  0.0000000
 R(2)=  9.0560300 15.6855041  0.0000000  G(2)=  0.0552118  0.0318766  0.0000000
 R(3)=  0.0000000  0.0000000 25.6852226  G(3)=  0.0000000  0.0000000  0.0389329
 Unit cell volume ucvol=  7.2970893E+03 bohr^3
 Angles (23,13,12)=  9.00000000E+01  9.00000000E+01  1.20000000E+02 degrees
 
 getcut: wavevector=  0.0000  0.0000  0.0000  ngfft=  75  75 120
         ecut(hartree)=     20.000   => boxcut(ratio)=   2.02972
 
--- Pseudopotential description ------------------------------------------------
- pspini: atom type   1  psp file is mo.psp8
- pspatm: opening atomic psp file    mo.psp8
- Mo    ONCVPSP-3.2.3.1  r_core=   1.45541   1.45541   1.35488
- 42.00000  14.00000    170510                znucl, zion, pspdat
    8   11    2    4       600   0.00000      pspcod,pspxc,lmax,lloc,mmax,r2well
    5.99000000000000    3.00000000000000    0.00000000000000   rchrg,fchrg,qchrg
     nproj     2     2     2
     extension_switch     1
  pspatm : epsatm=   15.95693586
         --- l  ekb(1:nproj) -->
             0   13.833287    1.350687
             1    8.015347    1.134034
             2    2.765699    0.969071
 pspatm: atomic psp has been read  and splines computed
 
- pspini: atom type   2  psp file is s.psp8
- pspatm: opening atomic psp file    s.psp8
- S     ONCVPSP-3.2.3.1  r_core=   1.45376   1.45376   1.61851
- 16.00000   6.00000    170504                znucl, zion, pspdat
    8   11    2    4       600   0.00000      pspcod,pspxc,lmax,lloc,mmax,r2well
    5.99000000000000    6.00000000000000    0.00000000000000   rchrg,fchrg,qchrg
     nproj     2     2     2
     extension_switch     1
  pspatm : epsatm=    9.01821879
         --- l  ekb(1:nproj) -->
             0    6.763951    0.574108
             1    3.227080    0.887329
             2   -3.547662   -0.986524
 pspatm: atomic psp has been read  and splines computed
 
   2.86360178E+05                                ecore*ucvol(ha*bohr**3)
--------------------------------------------------------------------------------
 
_setup2: Arith. and geom. avg. npw (full set) are    1253.667    1253.665
 
================================================================================

--- !BeginCycle
iteration_state: {dtset: 1, }
solver: {iscf: 7, nstep: 100, nline: 4, wfoptalg: 114, }
tolerances: {toldfe: 1.00E-09, }
...
 
     iter   Etot(hartree)      deltaE(h)  residm     vres2
 ETOT  1  -1662.4341585826    -1.662E+03 5.074E-03 8.349E+02
 ETOT  2  -1662.6030606272    -1.689E-01 2.057E-04 9.451E+02
 ETOT  3  -1662.5743701985     2.869E-02 1.060E-02 6.496E+02
 ETOT  4  -1662.6850284719    -1.107E-01 2.575E-03 8.532E+01
 ETOT  5  -1662.7069263023    -2.190E-02 4.353E-05 6.285E+00
 ETOT  6  -1662.7082286471    -1.302E-03 2.886E-05 1.008E+00
 ETOT  7  -1662.7083483858    -1.197E-04 7.141E-05 3.041E-01
 ETOT  8  -1662.7084298663    -8.148E-05 7.291E-05 6.608E-02
 ETOT  9  -1662.7084370170    -7.151E-06 4.403E-05 1.147E-02
 ETOT 10  -1662.7084374580    -4.411E-07 6.311E-05 6.082E-03
 ETOT 11  -1662.7084388733    -1.415E-06 2.807E-05 1.407E-03
 ETOT 12  -1662.7084389466    -7.334E-08 1.670E-05 4.607E-04
 ETOT 13  -1662.7084390789    -1.322E-07 8.069E-06 4.743E-05
 ETOT 14  -1662.7084391062    -2.735E-08 3.274E-06 4.582E-05
 ETOT 15  -1662.7084391108    -4.570E-09 1.452E-06 6.630E-06
 ETOT 16  -1662.7084391120    -1.273E-09 1.213E-06 4.260E-06
 ETOT 17  -1662.7084391123    -2.813E-10 7.777E-07 2.782E-06
 ETOT 18  -1662.7084391123     5.980E-11 5.307E-07 1.254E-06
 
 At SCF step   18, etot is converged : 
  for the second time, diff in etot=  5.980E-11 < toldfe=  1.000E-09
 
 Cartesian components of stress tensor (hartree/bohr^3)
  sigma(1 1)=  6.93423003E-04  sigma(3 2)=  1.04755533E-08
  sigma(2 2)=  6.93741830E-04  sigma(3 1)= -6.11517747E-09
  sigma(3 3)=  6.57853010E-04  sigma(2 1)=  9.30286784E-08
 

--- !ResultsGS
iteration_state: {dtset: 1, }
comment   : Summary of ground state results
lattice_vectors:
- [  9.0560300, -15.6855041,   0.0000000, ]
- [  9.0560300,  15.6855041,   0.0000000, ]
- [  0.0000000,   0.0000000,  25.6852226, ]
lattice_lengths: [  18.11206,   18.11206,   25.68522, ]
lattice_angles: [ 90.000,  90.000, 120.000, ] # degrees, (23, 13, 12)
lattice_volume:   7.2970893E+03
convergence: {deltae:  5.980E-11, res2:  1.254E-06, residm:  5.307E-07, diffor: null, }
etotal    :  -1.66270844E+03
entropy   :   0.00000000E+00
fermie    :   2.46263392E-01
cartesian_stress_tensor: # hartree/bohr^3
- [  6.93423003E-04,   9.30286784E-08,  -6.11517747E-09, ]
- [  9.30286784E-08,   6.93741830E-04,   1.04755533E-08, ]
- [ -6.11517747E-09,   1.04755533E-08,   6.57853010E-04, ]
pressure_GPa:  -2.0055E+01
xred      :
- [  2.2286E-01,   1.1111E-01,   2.5064E-01, Mo]
- [  5.5556E-01,   1.1111E-01,   2.5000E-01, Mo]
- [  8.8889E-01,   1.1111E-01,   2.5000E-01, Mo]
- [  2.2222E-01,   4.4444E-01,   2.5000E-01, Mo]
- [  5.5556E-01,   4.4444E-01,   2.5000E-01, Mo]
- [  8.8889E-01,   4.4444E-01,   2.5000E-01, Mo]
- [  2.2222E-01,   7.7778E-01,   2.5000E-01, Mo]
- [  5.5556E-01,   7.7778E-01,   2.5000E-01, Mo]
- [  8.8889E-01,   7.7778E-01,   2.5000E-01, Mo]
- [  1.1111E-01,   2.2222E-01,   7.5000E-01, Mo]
- [  4.4444E-01,   2.2222E-01,   7.5000E-01, Mo]
- [  7.7778E-01,   2.2222E-01,   7.5000E-01, Mo]
- [  1.1111E-01,   5.5556E-01,   7.5000E-01, Mo]
- [  4.4444E-01,   5.5556E-01,   7.5000E-01, Mo]
- [  7.7778E-01,   5.5556E-01,   7.5000E-01, Mo]
- [  1.1111E-01,   8.8889E-01,   7.5000E-01, Mo]
- [  4.4444E-01,   8.8889E-01,   7.5000E-01, Mo]
- [  7.7778E-01,   8.8889E-01,   7.5000E-01, Mo]
- [  2.2222E-01,   1.1111E-01,   6.3523E-01,  S]
- [  5.5556E-01,   1.1111E-01,   6.3523E-01,  S]
- [  8.8889E-01,   1.1111E-01,   6.3523E-01,  S]
- [  2.2222E-01,   4.4444E-01,   6.3523E-01,  S]
- [  5.5556E-01,   4.4444E-01,   6.3523E-01,  S]
- [  8.8889E-01,   4.4444E-01,   6.3523E-01,  S]
- [  2.2222E-01,   7.7778E-01,   6.3523E-01,  S]
- [  5.5556E-01,   7.7778E-01,   6.3523E-01,  S]
- [  8.8889E-01,   7.7778E-01,   6.3523E-01,  S]
- [  1.1111E-01,   2.2222E-01,   3.6477E-01,  S]
- [  4.4444E-01,   2.2222E-01,   3.6477E-01,  S]
- [  7.7778E-01,   2.2222E-01,   3.6477E-01,  S]
- [  1.1111E-01,   5.5556E-01,   3.6477E-01,  S]
- [  4.4444E-01,   5.5556E-01,   3.6477E-01,  S]
- [  7.7778E-01,   5.5556E-01,   3.6477E-01,  S]
- [  1.1111E-01,   8.8889E-01,   3.6477E-01,  S]
- [  4.4444E-01,   8.8889E-01,   3.6477E-01,  S]
- [  7.7778E-01,   8.8889E-01,   3.6477E-01,  S]
- [  2.2222E-01,   1.1111E-01,   8.6477E-01,  S]
- [  5.5556E-01,   1.1111E-01,   8.6477E-01,  S]
- [  8.8889E-01,   1.1111E-01,   8.6477E-01,  S]
- [  2.2222E-01,   4.4444E-01,   8.6477E-01,  S]
- [  5.5556E-01,   4.4444E-01,   8.6477E-01,  S]
- [  8.8889E-01,   4.4444E-01,   8.6477E-01,  S]
- [  2.2222E-01,   7.7778E-01,   8.6477E-01,  S]
- [  5.5556E-01,   7.7778E-01,   8.6477E-01,  S]
- [  8.8889E-01,   7.7778E-01,   8.6477E-01,  S]
- [  1.1111E-01,   2.2222E-01,   1.3523E-01,  S]
- [  4.4444E-01,   2.2222E-01,   1.3523E-01,  S]
- [  7.7778E-01,   2.2222E-01,   1.3523E-01,  S]
- [  1.1111E-01,   5.5556E-01,   1.3523E-01,  S]
- [  4.4444E-01,   5.5556E-01,   1.3523E-01,  S]
- [  7.7778E-01,   5.5556E-01,   1.3523E-01,  S]
- [  1.1111E-01,   8.8889E-01,   1.3523E-01,  S]
- [  4.4444E-01,   8.8889E-01,   1.3523E-01,  S]
- [  7.7778E-01,   8.8889E-01,   1.3523E-01,  S]
cartesian_forces: # hartree/bohr
- [ -1.43864490E-03,   2.47993395E-03,  -4.39730316E-03, ]
- [  1.75126065E-04,  -5.23943568E-05,  -1.05062561E-04, ]
- [ -4.51392091E-05,  -1.71620540E-04,  -1.06277227E-04, ]
- [  9.86875872E-05,  -4.32020910E-06,  -1.04991458E-04, ]
- [ -4.16062627E-05,  -8.73636200E-05,  -1.06531373E-04, ]
- [  1.58576938E-05,  -2.77597631E-05,   1.91449349E-05, ]
- [ -1.19564727E-04,  -1.32704654E-04,  -1.04155799E-04, ]
- [  1.60403335E-05,  -2.76059218E-05,   1.92279067E-05, ]
- [  1.71176229E-04,   3.82968254E-05,  -1.07005005E-04, ]
- [  7.10209448E-07,   1.53339583E-07,  -8.27563575E-07, ]
- [ -5.55712234E-07,  -6.13445757E-07,  -5.24051497E-07, ]
- [  7.27150376E-08,  -4.08403314E-07,   5.12765697E-07, ]
- [  7.31115467E-07,  -5.59220983E-07,   2.57541888E-07, ]
- [ -6.31172870E-07,   1.51830242E-06,   4.66420067E-06, ]
- [  2.42069054E-07,  -9.11705440E-07,   1.16464565E-07, ]
- [  6.55390966E-07,  -1.36395230E-06,  -1.45722249E-07, ]
- [ -8.96015906E-07,  -4.39176812E-07,   4.68552740E-06, ]
- [  5.35657293E-07,   6.64271154E-07,   4.22690618E-06, ]
- [  7.92876456E-08,  -2.27506566E-07,   3.30878211E-05, ]
- [ -6.29507981E-07,  -2.13495653E-07,   3.81607855E-05, ]
- [ -6.22465668E-07,  -1.41659061E-07,   3.78676928E-05, ]
- [  8.43762118E-07,  -1.97460505E-07,   3.75796260E-05, ]
- [ -2.88097183E-07,   5.07705408E-07,   3.83622467E-05, ]
- [  1.09831347E-09,  -9.34158860E-08,   3.78008190E-05, ]
- [  6.83601457E-07,  -4.48390151E-07,   3.77711092E-05, ]
- [ -2.98607552E-07,   4.93009507E-07,   3.58863107E-05, ]
- [  1.74846753E-07,   4.54117405E-07,   3.82652256E-05, ]
- [  9.68983683E-05,   6.19502090E-05,   3.96635189E-04, ]
- [  9.14091370E-04,  -6.39775325E-04,   1.08037790E-03, ]
- [  8.58199624E-06,  -1.24391677E-05,  -6.14606166E-06, ]
- [ -2.85827644E-06,  -7.06936099E-06,  -6.97582440E-06, ]
- [  9.86825066E-07,   5.99294211E-05,  -3.29034832E-06, ]
- [  7.57225380E-06,  -3.65616810E-06,  -5.32337781E-06, ]
- [ -4.08812467E-04,  -4.59889266E-04,   7.35476252E-04, ]
- [ -2.57488458E-05,  -5.22616896E-05,   1.48945908E-06, ]
- [  4.61684850E-06,   2.68928732E-05,  -8.10642421E-06, ]
- [  6.16603614E-08,  -2.09639557E-07,  -4.16441264E-05, ]
- [  4.71358867E-07,   3.73255821E-07,  -3.70155893E-05, ]
- [  4.43034495E-07,   5.15824928E-07,  -3.66776802E-05, ]
- [ -2.18759665E-07,   4.63448516E-07,  -3.63913185E-05, ]
- [ -2.43845833E-07,  -7.28507204E-07,  -3.72124494E-05, ]
- [ -1.11968383E-08,  -8.18244180E-08,  -3.70237728E-05, ]
- [ -4.17385109E-07,   1.50029550E-07,  -3.66075068E-05, ]
- [ -3.03518697E-07,   5.08069838E-07,  -3.90859254E-05, ]
- [  1.42842409E-07,  -7.90427818E-07,  -3.70922019E-05, ]
- [  9.69797571E-05,  -1.06369638E-03,   1.11522960E-03, ]
- [ -1.02724622E-04,  -5.28931693E-05,   4.69396983E-04, ]
- [  5.89402209E-06,  -1.28899234E-05,   6.85367511E-05, ]
- [ -6.64441650E-07,  -7.79992973E-06,   6.85579843E-05, ]
- [ -5.27002751E-05,   2.98273059E-05,   7.14592969E-05, ]
- [  7.10515451E-06,  -8.14432882E-07,   6.85234820E-05, ]
- [  5.86895873E-04,   1.14719468E-04,   7.95143114E-04, ]
- [ -2.61329331E-05,   1.01546511E-05,   6.66044825E-05, ]
- [  5.73542185E-05,  -3.12396203E-06,   7.63681594E-05, ]
force_length_stats: {min:   6.59552427E-07, max:   5.24938536E-03, mean:   2.54371021E-04, }
...

 Integrated electronic density in atomic spheres:
 ------------------------------------------------
 Atom  Sphere_radius  Integrated_density
    1        2.00000         10.47493901
    2        2.00000         10.46156057
    3        2.00000         10.46119864
    4        2.00000         10.46120268
    5        2.00000         10.46154137
    6        2.00000         10.46136874
    7        2.00000         10.46138035
    8        2.00000         10.46137116
    9        2.00000         10.46136341
   10        2.00000         10.46136484
   11        2.00000         10.46136752
   12        2.00000         10.46137269
   13        2.00000         10.46136837
   14        2.00000         10.46137211
   15        2.00000         10.46136702
   16        2.00000         10.46137155
   17        2.00000         10.46137349
   18        2.00000         10.46136811
   19        2.00000          3.93330443
   20        2.00000          3.93329772
   21        2.00000          3.93329111
   22        2.00000          3.93328990
   23        2.00000          3.93329919
   24        2.00000          3.93329182
   25        2.00000          3.93329305
   26        2.00000          3.93329651
   27        2.00000          3.93329564
   28        2.00000          3.93382894
   29        2.00000          3.93577817
   30        2.00000          3.93334583
   31        2.00000          3.93332955
   32        2.00000          3.93334093
   33        2.00000          3.93336330
   34        2.00000          3.93479820
   35        2.00000          3.93337440
   36        2.00000          3.93330646
   37        2.00000          3.93329320
   38        2.00000          3.93330530
   39        2.00000          3.93329883
   40        2.00000          3.93329763
   41        2.00000          3.93330685
   42        2.00000          3.93330447
   43        2.00000          3.93330064
   44        2.00000          3.93329952
   45        2.00000          3.93330339
   46        2.00000          3.93088113
   47        2.00000          3.93276273
   48        2.00000          3.93324887
   49        2.00000          3.93323323
   50        2.00000          3.93325613
   51        2.00000          3.93326598
   52        2.00000          3.93181721
   53        2.00000          3.93328927
   54        2.00000          3.93322205
================================================================================
 
 ----iterations are completed or convergence reached----
 
 Mean square residual over all n,k,spin=   19.177E-10; max=  53.072E-08
 reduced coordinates (array xred) for   54 atoms
       0.222858578684      0.111111111110      0.250636356460
       0.555555555557      0.111111111110      0.250000000000
       0.888888888890      0.111111111110      0.250000000000
       0.222222222223      0.444444444443      0.250000000000
       0.555555555557      0.444444444443      0.250000000000
       0.888888888890      0.444444444443      0.250000000000
       0.222222222223      0.777777777777      0.250000000000
       0.555555555557      0.777777777777      0.250000000000
       0.888888888890      0.777777777777      0.250000000000
       0.111111111110      0.222222222223      0.750000000000
       0.444444444443      0.222222222223      0.750000000000
       0.777777777777      0.222222222223      0.750000000000
       0.111111111110      0.555555555557      0.750000000000
       0.444444444443      0.555555555557      0.750000000000
       0.777777777777      0.555555555557      0.750000000000
       0.111111111110      0.888888888890      0.750000000000
       0.444444444443      0.888888888890      0.750000000000
       0.777777777777      0.888888888890      0.750000000000
       0.222222222223      0.111111111110      0.635231266500
       0.555555555557      0.111111111110      0.635231266500
       0.888888888890      0.111111111110      0.635231266500
       0.222222222223      0.444444444443      0.635231266500
       0.555555555557      0.444444444443      0.635231266500
       0.888888888890      0.444444444443      0.635231266500
       0.222222222223      0.777777777777      0.635231266500
       0.555555555557      0.777777777777      0.635231266500
       0.888888888890      0.777777777777      0.635231266500
       0.111111111110      0.222222222223      0.364768733500
       0.444444444443      0.222222222223      0.364768733500
       0.777777777777      0.222222222223      0.364768733500
       0.111111111110      0.555555555557      0.364768733500
       0.444444444443      0.555555555557      0.364768733500
       0.777777777777      0.555555555557      0.364768733500
       0.111111111110      0.888888888890      0.364768733500
       0.444444444443      0.888888888890      0.364768733500
       0.777777777777      0.888888888890      0.364768733500
       0.222222222223      0.111111111110      0.864768733500
       0.555555555557      0.111111111110      0.864768733500
       0.888888888890      0.111111111110      0.864768733500
       0.222222222223      0.444444444443      0.864768733500
       0.555555555557      0.444444444443      0.864768733500
       0.888888888890      0.444444444443      0.864768733500
       0.222222222223      0.777777777777      0.864768733500
       0.555555555557      0.777777777777      0.864768733500
       0.888888888890      0.777777777777      0.864768733500
       0.111111111110      0.222222222223      0.135231266500
       0.444444444443      0.222222222223      0.135231266500
       0.777777777777      0.222222222223      0.135231266500
       0.111111111110      0.555555555557      0.135231266500
       0.444444444443      0.555555555557      0.135231266500
       0.777777777777      0.555555555557      0.135231266500
       0.111111111110      0.888888888890      0.135231266500
       0.444444444443      0.888888888890      0.135231266500
       0.777777777777      0.888888888890      0.135231266500
 rms dE/dt=  1.1101E-02; max dE/dt=  1.1295E-01; dE/dt below (all hartree)
    1       0.051927352865     -0.025870524460      0.112945104858
    2      -0.002407851347     -0.000764036800      0.002697949403
    3      -0.002283245192      0.003100814913      0.002729148374
    4      -0.000961554956     -0.000825874890      0.002696123090
    5      -0.000993627402      0.001747208186      0.002735676173
    6      -0.000579106175      0.000291896330     -0.000492347786
    7      -0.000998830178      0.003164399347      0.002674659017
    8      -0.000578347089      0.000287829262     -0.000494478935
    9      -0.000949544601     -0.002150803873      0.002747841510
   10      -0.000004099017     -0.000008758683      0.000020650283
   11      -0.000004662207      0.000014732956      0.000012854508
   12      -0.000007137069      0.000005825706     -0.000013776373
   13      -0.000015465214      0.000002228863     -0.000007220892
   14       0.000029458712     -0.000018021215     -0.000120406904
   15      -0.000016565291      0.000012186579     -0.000003597290
   16      -0.000027402067      0.000015537243      0.000003137037
   17       0.000001153090      0.000015081260     -0.000120954686
   18       0.000005495952     -0.000015192153     -0.000109174898
   19      -0.000004359134      0.000002928728     -0.000850473924
   20       0.000002279509      0.000009127834     -0.000980774144
   21       0.000003342527      0.000007937265     -0.000973245992
   22      -0.000010810950     -0.000004465664     -0.000965846931
   23       0.000010500085     -0.000005276395     -0.000985948719
   24      -0.000001547769      0.000001533533     -0.000971528323
   25      -0.000013296488      0.000000920714     -0.000970765221
   26       0.000010364754     -0.000004950700     -0.000922353750
   27       0.000005467096     -0.000008628274     -0.000983456711
   28       0.000094133179     -0.001849156584     -0.010188269004
   29      -0.018313309885      0.001757237802     -0.027750352665
   30      -0.000272905979      0.000117474005      0.000157257091
   31      -0.000085074401      0.000136849332      0.000178569731
   32       0.000931013915     -0.000948881693      0.000083907458
   33      -0.000125995945     -0.000011147514      0.000136126273
   34      -0.003511449534      0.010915891123     -0.018891477152
   35      -0.000586641172      0.001053011470     -0.000038862959
   36       0.000379945406     -0.000463560387      0.000207609439
   37      -0.000003919247      0.000002808108      0.001069032785
   38       0.000001513518     -0.000010045142      0.000950147781
   39       0.000004006293     -0.000012024904      0.000941468511
   40       0.000009177970     -0.000005210126      0.000934113246
   41      -0.000009291275      0.000013713482      0.000955204176
   42      -0.000001254606      0.000001463060      0.000950357977
   43       0.000006060594      0.000001504767      0.000939666090
   44       0.000010645459     -0.000005142453      0.001003324825
   45      -0.000013764391      0.000011182877      0.000952115593
   46      -0.017562938121      0.015806440596     -0.028645526348
   47       0.000100548690      0.001760011488     -0.012057171892
   48      -0.000255633934      0.000148886709     -0.001760987581
   49      -0.000116401173      0.000128441237     -0.001761532961
   50       0.000945039053      0.000009477148     -0.001836053822
   51      -0.000077191830     -0.000051491498     -0.001760646763
   52      -0.003515586492     -0.007114301121     -0.020424033781
   53       0.000395868900      0.000077458010     -0.001711356832
   54      -0.000568474991     -0.000470322401     -0.001962139048
 
 cartesian coordinates (angstrom) at end:
    1      1.60046446885415    -0.92754993882352     3.40665798264484
    2      3.19482978598643    -3.68907167390813     3.39800860373591
    3      4.79224467897964    -6.45587542932540     3.39800860373591
    4      3.19482978598643     1.84453583692640     3.39800860373591
    5      4.79224467897964    -0.92226791849087     3.39800860373591
    6      6.38965957197285    -3.68907167390813     3.39800860373591
    7      4.79224467897964     4.61133959234366     3.39800860373591
    8      6.38965957197285     1.84453583692640     3.39800860373591
    9      7.98707446496607    -0.92226791849087     3.39800860373591
   10      1.59741489299321     0.92226791849087    10.19402581120772
   11      3.19482978598643    -1.84453583692640    10.19402581120772
   12      4.79224467897964    -4.61133959234366    10.19402581120772
   13      3.19482978598643     3.68907167390814    10.19402581120772
   14      4.79224467897964     0.92226791849087    10.19402581120772
   15      6.38965957197285    -1.84453583692640    10.19402581120772
   16      4.79224467897964     6.45587542932540    10.19402581120772
   17      6.38965957197285     3.68907167390813    10.19402581120772
   18      7.98707446496607     0.92226791849087    10.19402581120772
   19      1.59741489299321    -0.92226791849087     8.63408523571622
   20      3.19482978598643    -3.68907167390813     8.63408523571622
   21      4.79224467897964    -6.45587542932540     8.63408523571622
   22      3.19482978598643     1.84453583692640     8.63408523571622
   23      4.79224467897964    -0.92226791849087     8.63408523571622
   24      6.38965957197285    -3.68907167390813     8.63408523571622
   25      4.79224467897964     4.61133959234366     8.63408523571622
   26      6.38965957197285     1.84453583692640     8.63408523571622
   27      7.98707446496607    -0.92226791849087     8.63408523571622
   28      1.59741489299321     0.92226791849087     4.95794917922740
   29      3.19482978598643    -1.84453583692640     4.95794917922740
   30      4.79224467897964    -4.61133959234366     4.95794917922740
   31      3.19482978598643     3.68907167390814     4.95794917922740
   32      4.79224467897964     0.92226791849087     4.95794917922740
   33      6.38965957197285    -1.84453583692640     4.95794917922740
   34      4.79224467897964     6.45587542932540     4.95794917922740
   35      6.38965957197285     3.68907167390813     4.95794917922740
   36      7.98707446496607     0.92226791849087     4.95794917922740
   37      1.59741489299321    -0.92226791849087    11.75396638669921
   38      3.19482978598643    -3.68907167390813    11.75396638669921
   39      4.79224467897964    -6.45587542932540    11.75396638669921
   40      3.19482978598643     1.84453583692640    11.75396638669921
   41      4.79224467897964    -0.92226791849087    11.75396638669921
   42      6.38965957197285    -3.68907167390813    11.75396638669921
   43      4.79224467897964     4.61133959234366    11.75396638669921
   44      6.38965957197285     1.84453583692640    11.75396638669921
   45      7.98707446496607    -0.92226791849087    11.75396638669921
   46      1.59741489299321     0.92226791849087     1.83806802824441
   47      3.19482978598643    -1.84453583692640     1.83806802824441
   48      4.79224467897964    -4.61133959234366     1.83806802824441
   49      3.19482978598643     3.68907167390814     1.83806802824441
   50      4.79224467897964     0.92226791849087     1.83806802824441
   51      6.38965957197285    -1.84453583692640     1.83806802824441
   52      4.79224467897964     6.45587542932540     1.83806802824441
   53      6.38965957197285     3.68907167390813     1.83806802824441
   54      7.98707446496607     0.92226791849087     1.83806802824441
 
 cartesian forces (hartree/bohr) at end:
    1     -0.00143864489926     0.00247993394606    -0.00439730316313
    2      0.00017512606529    -0.00005239435682    -0.00010506256119
    3     -0.00004513920914    -0.00017162053977    -0.00010627722737
    4      0.00009868758720    -0.00000432020910    -0.00010499145754
    5     -0.00004160626273    -0.00008736361999    -0.00010653137346
    6      0.00001585769377    -0.00002775976309     0.00001914493488
    7     -0.00011956472714    -0.00013270465367    -0.00010415579908
    8      0.00001604033352    -0.00002760592184     0.00001922790668
    9      0.00017117622893     0.00003829682544    -0.00010700500522
   10      0.00000071020945     0.00000015333958    -0.00000082756357
   11     -0.00000055571223    -0.00000061344576    -0.00000052405150
   12      0.00000007271504    -0.00000040840331     0.00000051276570
   13      0.00000073111547    -0.00000055922098     0.00000025754189
   14     -0.00000063117287     0.00000151830242     0.00000466420067
   15      0.00000024206905    -0.00000091170544     0.00000011646456
   16      0.00000065539097    -0.00000136395230    -0.00000014572225
   17     -0.00000089601591    -0.00000043917681     0.00000468552740
   18      0.00000053565729     0.00000066427115     0.00000422690618
   19      0.00000007928765    -0.00000022750657     0.00003308782113
   20     -0.00000062950798    -0.00000021349565     0.00003816078553
   21     -0.00000062246567    -0.00000014165906     0.00003786769281
   22      0.00000084376212    -0.00000019746050     0.00003757962599
   23     -0.00000028809718     0.00000050770541     0.00003836224670
   24      0.00000000109831    -0.00000009341589     0.00003780081901
   25      0.00000068360146    -0.00000044839015     0.00003777110921
   26     -0.00000029860755     0.00000049300951     0.00003588631067
   27      0.00000017484675     0.00000045411741     0.00003826522564
   28      0.00009689836832     0.00006195020903     0.00039663518897
   29      0.00091409136950    -0.00063977532470     0.00108037789627
   30      0.00000858199624    -0.00001243916775    -0.00000614606166
   31     -0.00000285827644    -0.00000706936099    -0.00000697582440
   32      0.00000098682507     0.00005992942109    -0.00000329034832
   33      0.00000757225380    -0.00000365616810    -0.00000532337781
   34     -0.00040881246685    -0.00045988926557     0.00073547625226
   35     -0.00002574884584    -0.00005226168959     0.00000148945908
   36      0.00000461684850     0.00002689287316    -0.00000810642421
   37      0.00000006166036    -0.00000020963956    -0.00004164412636
   38      0.00000047135887     0.00000037325582    -0.00003701558931
   39      0.00000044303449     0.00000051582493    -0.00003667768022
   40     -0.00000021875966     0.00000046344852    -0.00003639131851
   41     -0.00000024384583    -0.00000072850720    -0.00003721244938
   42     -0.00000001119684    -0.00000008182442    -0.00003702377285
   43     -0.00000041738511     0.00000015002955    -0.00003660750675
   44     -0.00000030351870     0.00000050806984    -0.00003908592543
   45      0.00000014284241    -0.00000079042782    -0.00003709220193
   46      0.00009697975713    -0.00106369638451     0.00111522959663
   47     -0.00010272462221    -0.00005289316933     0.00046939698336
   48      0.00000589402209    -0.00001288992337     0.00006853675107
   49     -0.00000066444165    -0.00000779992973     0.00006855798429
   50     -0.00005270027508     0.00002982730586     0.00007145929691
   51      0.00000710515451    -0.00000081443288     0.00006852348201
   52      0.00058689587292     0.00011471946841     0.00079514311407
   53     -0.00002613293315     0.00001015465106     0.00006660448247
   54      0.00005735421854    -0.00000312396203     0.00007636815942
 frms,max,avg= 4.6450557E-04 4.3973032E-03  -3.123E-10 -4.805E-09  2.359E-08 h/b
 
 cartesian forces (eV/Angstrom) at end:
    1     -0.07397808892071     0.12752332008686    -0.22611840113007
    2      0.00900534359599    -0.00269422592739    -0.00540253366079
    3     -0.00232115126467    -0.00882508224089    -0.00546499430148
    4      0.00507471934553    -0.00022215406537    -0.00539887736410
    5     -0.00213947987140    -0.00449241758778    -0.00547806301790
    6      0.00081543533131    -0.00142746429164     0.00098447205111
    7     -0.00614826495450    -0.00682394708689    -0.00535590608231
    8      0.00082482704414    -0.00141955345715     0.00098873863255
    9      0.00880223486114     0.00196930177771    -0.00550241814021
   10      0.00003652043512     0.00000788503773    -0.00004255502643
   11     -0.00002857586961    -0.00003154464647    -0.00002694780919
   12      0.00000373915726    -0.00002100094101     0.00002636747010
   13      0.00003759546575    -0.00002875629673     0.00001324333526
   14     -0.00003245621123     0.00007807424303     0.00023984282167
   15      0.00001244769017    -0.00004688177477     0.00000598884820
   16      0.00003370155566    -0.00007013724125    -0.00000749333868
   17     -0.00004607498653    -0.00002258337777     0.00024093948596
   18      0.00002754460317     0.00003415819326     0.00021735623682
   19      0.00000407713432    -0.00001169885703     0.00170144402888
   20     -0.00003237059918    -0.00001097838696     0.00196230632482
   21     -0.00003200846890    -0.00000728440118     0.00194723489260
   22      0.00004338798895    -0.00001015382655     0.00193242190223
   23     -0.00001481455153     0.00002610725959     0.00197266587380
   24      0.00000005647754    -0.00000480363759     0.00194379610360
   25      0.00003515219731    -0.00002305714668     0.00194226836482
   26     -0.00001535501643     0.00002535156600     0.00184534813501
   27      0.00000899098076     0.00002335165390     0.00196767685099
   28      0.00498271401911     0.00318560756370     0.02039579975147
   29      0.04700446416595    -0.03289856717571     0.05555526045371
   30      0.00044130395301    -0.00063964766992    -0.00031604317101
   31     -0.00014697847190    -0.00036352112765    -0.00035871128319
   32      0.00005074458092     0.00308169447831    -0.00016919649947
   33      0.00038938091323    -0.00018800770726    -0.00027373906999
   34     -0.02102198050436    -0.02364845487543     0.03781970632026
   35     -0.00132405877781    -0.00268740390470     0.00007659105886
   36      0.00023740787556     0.00138288702309    -0.00041684905780
   37      0.00000317070300    -0.00001078009854    -0.00214142689724
   38      0.00002423824546     0.00001919358441    -0.00190341797282
   39      0.00002278174778     0.00002652478202    -0.00188604199025
   40     -0.00001124907332     0.00002383147889    -0.00187131668013
   41     -0.00001253905585    -0.00003746134349    -0.00191354092366
   42     -0.00000057576453    -0.00000420758040    -0.00190383878692
   43     -0.00002146280347     0.00000771482900    -0.00188243352559
   44     -0.00001560755759     0.00002612599932    -0.00200987892762
   45      0.00000734525138    -0.00004064542922    -0.00190735755168
   46      0.00498689919964    -0.05469746270179     0.05734740679197
   47     -0.00528231201485    -0.00271987589564     0.02413736134072
   48      0.00030308277616    -0.00066282645410     0.00352430114455
   49     -0.00003416696053    -0.00040108847946     0.00352539300061
   50     -0.00270995687517     0.00153378160696     0.00367458448113
   51      0.00036536170395    -0.00004187981913     0.00352361882222
   52      0.03017939666431     0.00589911175406     0.04088789945867
   53     -0.00134380933983     0.00052217310860     0.00342493990628
   54      0.00294927225029    -0.00016064057294     0.00392700831966
 frms,max,avg= 2.3885835E-02 2.2611840E-01  -1.606E-08 -2.471E-07  1.213E-06 e/A
 length scales=  1.000000000000  1.000000000000  1.000000000000 bohr
              =  0.529177208590  0.529177208590  0.529177208590 angstroms
 prteigrs : about to open file abo_EIG
 Fermi (or HOMO) energy (hartree) =   0.24626   Average Vxc (hartree)=  -0.37286
 Eigenvalues (hartree) for nkpt=   5  k points:
 kpt#   1, nband=280, wtk=  0.11111, kpt=  0.0000  0.0000  0.0000 (reduced coord)
  -2.00355   -2.00346   -2.00346   -2.00345   -2.00345   -2.00344   -2.00344   -2.00338
  -2.00337   -2.00337   -2.00336   -2.00336   -2.00335   -2.00335   -2.00325   -2.00325
  -2.00325   -2.00325   -1.05722   -1.05718   -1.05718   -1.05715   -1.05709   -1.05707
  -1.05706   -1.05706   -1.05706   -1.05704   -1.05699   -1.05698   -1.05698   -1.05698
  -1.05697   -1.05695   -1.05573   -1.05572   -1.05556   -1.05555   -1.05416   -1.05395
  -1.05240   -1.05240   -1.05239   -1.05239   -1.05239   -1.05238   -1.05218   -1.05217
  -1.05217   -1.05217   -1.05216   -1.05216   -1.05108   -1.05108   -1.05108   -1.05108
  -1.04916   -1.04914   -1.04914   -1.04914   -1.04913   -1.04912   -1.04891   -1.04890
  -1.04889   -1.04889   -1.04889   -1.04888   -1.04635   -1.04634   -1.04632   -1.04632
  -0.28580   -0.28318   -0.23918   -0.23869   -0.23863   -0.23863   -0.23863   -0.23863
  -0.23858   -0.23670   -0.23665   -0.23665   -0.23664   -0.23664   -0.23659   -0.23461
  -0.21936   -0.21929   -0.21929   -0.21929   -0.21928   -0.21922   -0.21693   -0.21686
  -0.21686   -0.21686   -0.21686   -0.21679   -0.20821   -0.20819   -0.20819   -0.20817
  -0.20490   -0.20484   -0.20484   -0.20477    0.01931    0.03355    0.03358    0.03462
   0.03520    0.03523    0.03762    0.03767    0.03767    0.03768    0.03768    0.03773
   0.04276    0.04280    0.04281    0.04281    0.04282    0.04286    0.06447    0.06448
   0.06448    0.06448    0.07616    0.07618    0.07622    0.07622    0.07626    0.07628
   0.08189    0.08191    0.08196    0.08196    0.08197    0.08201    0.08206    0.08208
   0.08474    0.08478    0.08479    0.08479    0.08479    0.08482    0.08489    0.08490
   0.09342    0.09346    0.09347    0.09347    0.09347    0.09352    0.10119    0.10121
   0.10121    0.10123    0.12607    0.12616    0.12617    0.12618    0.12618    0.12618
   0.12619    0.12619    0.12621    0.12627    0.12670    0.12676    0.12678    0.12678
   0.12680    0.12689    0.13477    0.13480    0.13489    0.13491    0.14804    0.15383
   0.15390    0.15390    0.15397    0.16753    0.16757    0.16759    0.16759    0.16761
   0.16764    0.17483    0.17495    0.17513    0.17523    0.17814    0.17820    0.17821
   0.17822    0.17823    0.17829    0.17946    0.17956    0.17957    0.17957    0.17958
   0.17966    0.18050    0.18058    0.18059    0.18059    0.18061    0.18071    0.19073
   0.19449    0.19455    0.19455    0.19455    0.19456    0.19462    0.19819    0.19824
   0.19825    0.19825    0.19826    0.19832    0.22143    0.22897    0.22902    0.23099
   0.23103    0.24626    0.29069    0.29069    0.29069    0.29069    0.30941    0.30951
   0.30952    0.30952    0.30954    0.30961    0.31034    0.31039    0.31041    0.31041
   0.31043    0.31048    0.31195    0.31200    0.31202    0.31203    0.31205    0.31210
   0.32505    0.32511    0.32514    0.32514    0.32516    0.32523    0.33131    0.33144
   0.33155    0.33167    0.33583    0.33583    0.34013    0.34018    0.34169    0.34174
   0.34730    0.34744    0.34744    0.34744    0.34745    0.34759    0.35178    0.35179
 prteigrs : prtvol=0 or 1, do not print more k-points.
 

--- !EnergyTerms
iteration_state     : {dtset: 1, }
comment             : Components of total free energy in Hartree
kinetic             :  5.36516284146926E+02
hartree             :  6.24014706707670E+02
xc                  : -2.99822482434632E+02
Ewald energy        : -9.09621652045360E+02
psp_core            :  3.92430686932514E+01
local_psp           : -1.86321557839726E+03
non_local_psp       :  2.10177214217137E+02
total_energy        : -1.66270843911226E+03
total_energy_eV     : -4.52445975839452E+04
band_energy         : -1.70333738153112E+02
...

 
 Cartesian components of stress tensor (hartree/bohr^3)
  sigma(1 1)=  6.93423003E-04  sigma(3 2)=  1.04755533E-08
  sigma(2 2)=  6.93741830E-04  sigma(3 1)= -6.11517747E-09
  sigma(3 3)=  6.57853010E-04  sigma(2 1)=  9.30286784E-08
 
-Cartesian components of stress tensor (GPa)         [Pressure= -2.0055E+01 GPa]
- sigma(1 1)=  2.04012057E+01  sigma(3 2)=  3.08201366E-04
- sigma(2 2)=  2.04105859E+01  sigma(3 1)= -1.79914702E-04
- sigma(3 3)=  1.93547005E+01  sigma(2 1)=  2.73699775E-03
 
== END DATASET(S) ==============================================================
================================================================================
  
 -outvars: echo values of variables after computation  --------
-          iomode           1
            acell      1.0000000000E+00  1.0000000000E+00  1.0000000000E+00 Bohr
              amu      9.59400000E+01  3.20660000E+01
           bandpp          14
          chkprim           0
     densfor_pred           6
           diemac      1.20000000E+01
             ecut      2.00000000E+01 Hartree
           etotal     -1.6627084391E+03
            fcart     -1.4386448993E-03  2.4799339461E-03 -4.3973031631E-03
                       1.7512606529E-04 -5.2394356822E-05 -1.0506256119E-04
                      -4.5139209137E-05 -1.7162053977E-04 -1.0627722737E-04
                       9.8687587205E-05 -4.3202091006E-06 -1.0499145754E-04
                      -4.1606262732E-05 -8.7363619989E-05 -1.0653137346E-04
                       1.5857693774E-05 -2.7759763087E-05  1.9144934878E-05
                      -1.1956472714E-04 -1.3270465367E-04 -1.0415579908E-04
                       1.6040333525E-05 -2.7605921836E-05  1.9227906684E-05
                       1.7117622893E-04  3.8296825437E-05 -1.0700500522E-04
                       7.1020944813E-07  1.5333958308E-07 -8.2756357466E-07
                      -5.5571223397E-07 -6.1344575670E-07 -5.2405149684E-07
                       7.2715037633E-08 -4.0840331383E-07  5.1276569743E-07
                       7.3111546717E-07 -5.5922098302E-07  2.5754188847E-07
                      -6.3117287041E-07  1.5183024208E-06  4.6642006714E-06
                       2.4206905355E-07 -9.1170544043E-07  1.1646456453E-07
                       6.5539096585E-07 -1.3639522979E-06 -1.4572224868E-07
                      -8.9601590588E-07 -4.3917681183E-07  4.6855273982E-06
                       5.3565729295E-07  6.6427115411E-07  4.2269061824E-06
                       7.9287645559E-08 -2.2750656626E-07  3.3087821127E-05
                      -6.2950798111E-07 -2.1349565308E-07  3.8160785527E-05
                      -6.2246566767E-07 -1.4165906084E-07  3.7867692810E-05
                       8.4376211791E-07 -1.9746050466E-07  3.7579625987E-05
                      -2.8809718263E-07  5.0770540831E-07  3.8362246696E-05
                       1.0983134687E-09 -9.3415885997E-08  3.7800819005E-05
                       6.8360145679E-07 -4.4839015094E-07  3.7771109214E-05
                      -2.9860755232E-07  4.9300950651E-07  3.5886310670E-05
                       1.7484675259E-07  4.5411740515E-07  3.8265225641E-05
                       9.6898368323E-05  6.1950209034E-05  3.9663518897E-04
                       9.1409136950E-04 -6.3977532470E-04  1.0803778963E-03
                       8.5819962409E-06 -1.2439167747E-05 -6.1460616590E-06
                      -2.8582764435E-06 -7.0693609917E-06 -6.9758244014E-06
                       9.8682506636E-07  5.9929421089E-05 -3.2903483245E-06
                       7.5722537965E-06 -3.6561681034E-06 -5.3233778071E-06
                      -4.0881246685E-04 -4.5988926557E-04  7.3547625226E-04
                      -2.5748845838E-05 -5.2261689591E-05  1.4894590785E-06
                       4.6168485048E-06  2.6892873161E-05 -8.1064242062E-06
                       6.1660361399E-08 -2.0963955685E-07 -4.1644126359E-05
                       4.7135886730E-07  3.7325582084E-07 -3.7015589314E-05
                       4.4303449460E-07  5.1582492758E-07 -3.6677680225E-05
                      -2.1875966498E-07  4.6344851634E-07 -3.6391318511E-05
                      -2.4384583326E-07 -7.2850720415E-07 -3.7212449382E-05
                      -1.1196838317E-08 -8.1824418040E-08 -3.7023772846E-05
                      -4.1738510934E-07  1.5002954999E-07 -3.6607506754E-05
                      -3.0351869654E-07  5.0806983816E-07 -3.9085925434E-05
                       1.4284240897E-07 -7.9042781826E-07 -3.7092201932E-05
                       9.6979757133E-05 -1.0636963845E-03  1.1152295966E-03
                      -1.0272462221E-04 -5.2893169328E-05  4.6939698336E-04
                       5.8940220860E-06 -1.2889923370E-05  6.8536751071E-05
                      -6.6444165026E-07 -7.7999297297E-06  6.8557984292E-05
                      -5.2700275075E-05  2.9827305863E-05  7.1459296905E-05
                       7.1051545051E-06 -8.1443288217E-07  6.8523482013E-05
                       5.8689587292E-04  1.1471946841E-04  7.9514311407E-04
                      -2.6132933150E-05  1.0154651062E-05  6.6604482466E-05
                       5.7354218544E-05 -3.1239620305E-06  7.6368159422E-05
-          fftalg         401
           istwfk        2    0    0    0    0
              ixc          11
              kpt      0.00000000E+00  0.00000000E+00  0.00000000E+00
                       3.33333333E-01  0.00000000E+00  0.00000000E+00
                       0.00000000E+00  3.33333333E-01  0.00000000E+00
                       3.33333333E-01  3.33333333E-01  0.00000000E+00
                      -3.33333333E-01  3.33333333E-01  0.00000000E+00
         kptrlatt        3    0    0      0    3    0      0    0    1
          kptrlen      2.56852226E+01
P           mkmem           1
            natom          54
            nband         280
            ngfft          75      75     120
             nkpt           5
    nblock_lobpcg           4
-          npband           5
-           npfft           5
-        np_spkpt           5
            nstep         100
             nsym           1
           ntypat           2
              occ      2.000000  2.000000  2.000000  2.000000  2.000000  2.000000
                       2.000000  2.000000  2.000000  2.000000  2.000000  2.000000
                       2.000000  2.000000  2.000000  2.000000  2.000000  2.000000
                       2.000000  2.000000  2.000000  2.000000  2.000000  2.000000
                       2.000000  2.000000  2.000000  2.000000  2.000000  2.000000
                       2.000000  2.000000  2.000000  2.000000  2.000000  2.000000
                       2.000000  2.000000  2.000000  2.000000  2.000000  2.000000
                       2.000000  2.000000  2.000000  2.000000  2.000000  2.000000
                       2.000000  2.000000  2.000000  2.000000  2.000000  2.000000
                       2.000000  2.000000  2.000000  2.000000  2.000000  2.000000
                       2.000000  2.000000  2.000000  2.000000  2.000000  2.000000
                       2.000000  2.000000  2.000000  2.000000  2.000000  2.000000
                       2.000000  2.000000  2.000000  2.000000  2.000000  2.000000
                       2.000000  2.000000  2.000000  2.000000  2.000000  2.000000
                       2.000000  2.000000  2.000000  2.000000  2.000000  2.000000
                       2.000000  2.000000  2.000000  2.000000  2.000000  2.000000
                       2.000000  2.000000  2.000000  2.000000  2.000000  2.000000
                       2.000000  2.000000  2.000000  2.000000  2.000000  2.000000
                       2.000000  2.000000  2.000000  2.000000  2.000000  2.000000
                       2.000000  2.000000  2.000000  2.000000  2.000000  2.000000
                       2.000000  2.000000  2.000000  2.000000  2.000000  2.000000
                       2.000000  2.000000  2.000000  2.000000  2.000000  2.000000
                       2.000000  2.000000  2.000000  2.000000  2.000000  2.000000
                       2.000000  2.000000  2.000000  2.000000  2.000000  2.000000
                       2.000000  2.000000  2.000000  2.000000  2.000000  2.000000
                       2.000000  2.000000  2.000000  2.000000  2.000000  2.000000
                       2.000000  2.000000  2.000000  2.000000  2.000000  2.000000
                       2.000000  2.000000  2.000000  2.000000  2.000000  2.000000
                       2.000000  2.000000  2.000000  2.000000  2.000000  2.000000
                       2.000000  2.000000  2.000000  2.000000  2.000000  2.000000
                       2.000000  2.000000  2.000000  2.000000  2.000000  2.000000
                       2.000000  2.000000  2.000000  2.000000  2.000000  2.000000
                       2.000000  2.000000  2.000000  2.000000  2.000000  2.000000
                       2.000000  2.000000  2.000000  2.000000  2.000000  2.000000
                       2.000000  2.000000  2.000000  2.000000  2.000000  2.000000
                       2.000000  2.000000  2.000000  2.000000  2.000000  2.000000
                       2.000000  2.000000  2.000000  2.000000  2.000000  2.000000
                       2.000000  2.000000  2.000000  2.000000  2.000000  2.000000
                       2.000000  2.000000  2.000000  2.000000  2.000000  2.000000
                       0.000000  0.000000  0.000000  0.000000  0.000000  0.000000
                       0.000000  0.000000  0.000000  0.000000  0.000000  0.000000
                       0.000000  0.000000  0.000000  0.000000  0.000000  0.000000
                       0.000000  0.000000  0.000000  0.000000  0.000000  0.000000
                       0.000000  0.000000  0.000000  0.000000  0.000000  0.000000
                       0.000000  0.000000  0.000000  0.000000  0.000000  0.000000
                       0.000000  0.000000  0.000000  0.000000  0.000000  0.000000
                       0.000000  0.000000  0.000000  0.000000
           ortalg          -2
        paral_kgb           1
           prtden           0
        prtposcar           1
            prtwf           0
            rprim      9.0560300050E+00 -1.5685504084E+01  0.0000000000E+00
                       9.0560300050E+00  1.5685504084E+01  0.0000000000E+00
                       0.0000000000E+00  0.0000000000E+00  2.5685222633E+01
          spgroup           1
           strten      6.9342300277E-04  6.9374183045E-04  6.5785301022E-04
                       1.0475553286E-08 -6.1151774726E-09  9.3028678354E-08
           toldfe      1.00000000E-09 Hartree
           tolsym      1.00000000E-08
            typat      1  1  1  1  1  1  1  1  1  1  1  1  1  1  1  1  1  1  2  2
                       2  2  2  2  2  2  2  2  2  2  2  2  2  2  2  2  2  2  2  2
                       2  2  2  2  2  2  2  2  2  2  2  2  2  2
         wfoptalg         114
              wtk        0.11111    0.22222    0.22222    0.22222    0.22222
           xangst      1.6004644689E+00 -9.2754993882E-01  3.4066579826E+00
                       3.1948297860E+00 -3.6890716739E+00  3.3980086037E+00
                       4.7922446790E+00 -6.4558754293E+00  3.3980086037E+00
                       3.1948297860E+00  1.8445358369E+00  3.3980086037E+00
                       4.7922446790E+00 -9.2226791849E-01  3.3980086037E+00
                       6.3896595720E+00 -3.6890716739E+00  3.3980086037E+00
                       4.7922446790E+00  4.6113395923E+00  3.3980086037E+00
                       6.3896595720E+00  1.8445358369E+00  3.3980086037E+00
                       7.9870744650E+00 -9.2226791849E-01  3.3980086037E+00
                       1.5974148930E+00  9.2226791849E-01  1.0194025811E+01
                       3.1948297860E+00 -1.8445358369E+00  1.0194025811E+01
                       4.7922446790E+00 -4.6113395923E+00  1.0194025811E+01
                       3.1948297860E+00  3.6890716739E+00  1.0194025811E+01
                       4.7922446790E+00  9.2226791849E-01  1.0194025811E+01
                       6.3896595720E+00 -1.8445358369E+00  1.0194025811E+01
                       4.7922446790E+00  6.4558754293E+00  1.0194025811E+01
                       6.3896595720E+00  3.6890716739E+00  1.0194025811E+01
                       7.9870744650E+00  9.2226791849E-01  1.0194025811E+01
                       1.5974148930E+00 -9.2226791849E-01  8.6340852357E+00
                       3.1948297860E+00 -3.6890716739E+00  8.6340852357E+00
                       4.7922446790E+00 -6.4558754293E+00  8.6340852357E+00
                       3.1948297860E+00  1.8445358369E+00  8.6340852357E+00
                       4.7922446790E+00 -9.2226791849E-01  8.6340852357E+00
                       6.3896595720E+00 -3.6890716739E+00  8.6340852357E+00
                       4.7922446790E+00  4.6113395923E+00  8.6340852357E+00
                       6.3896595720E+00  1.8445358369E+00  8.6340852357E+00
                       7.9870744650E+00 -9.2226791849E-01  8.6340852357E+00
                       1.5974148930E+00  9.2226791849E-01  4.9579491792E+00
                       3.1948297860E+00 -1.8445358369E+00  4.9579491792E+00
                       4.7922446790E+00 -4.6113395923E+00  4.9579491792E+00
                       3.1948297860E+00  3.6890716739E+00  4.9579491792E+00
                       4.7922446790E+00  9.2226791849E-01  4.9579491792E+00
                       6.3896595720E+00 -1.8445358369E+00  4.9579491792E+00
                       4.7922446790E+00  6.4558754293E+00  4.9579491792E+00
                       6.3896595720E+00  3.6890716739E+00  4.9579491792E+00
                       7.9870744650E+00  9.2226791849E-01  4.9579491792E+00
                       1.5974148930E+00 -9.2226791849E-01  1.1753966387E+01
                       3.1948297860E+00 -3.6890716739E+00  1.1753966387E+01
                       4.7922446790E+00 -6.4558754293E+00  1.1753966387E+01
                       3.1948297860E+00  1.8445358369E+00  1.1753966387E+01
                       4.7922446790E+00 -9.2226791849E-01  1.1753966387E+01
                       6.3896595720E+00 -3.6890716739E+00  1.1753966387E+01
                       4.7922446790E+00  4.6113395923E+00  1.1753966387E+01
                       6.3896595720E+00  1.8445358369E+00  1.1753966387E+01
                       7.9870744650E+00 -9.2226791849E-01  1.1753966387E+01
                       1.5974148930E+00  9.2226791849E-01  1.8380680282E+00
                       3.1948297860E+00 -1.8445358369E+00  1.8380680282E+00
                       4.7922446790E+00 -4.6113395923E+00  1.8380680282E+00
                       3.1948297860E+00  3.6890716739E+00  1.8380680282E+00
                       4.7922446790E+00  9.2226791849E-01  1.8380680282E+00
                       6.3896595720E+00 -1.8445358369E+00  1.8380680282E+00
                       4.7922446790E+00  6.4558754293E+00  1.8380680282E+00
                       6.3896595720E+00  3.6890716739E+00  1.8380680282E+00
                       7.9870744650E+00  9.2226791849E-01  1.8380680282E+00
            xcart      3.0244395315E+00 -1.7528153590E+00  6.4376506156E+00
                       6.0373533367E+00 -6.9713351483E+00  6.4213056582E+00
                       9.0560300050E+00 -1.2199836509E+01  6.4213056582E+00
                       6.0373533367E+00  3.4856675741E+00  6.4213056582E+00
                       9.0560300050E+00 -1.7428337871E+00  6.4213056582E+00
                       1.2074706673E+01 -6.9713351483E+00  6.4213056582E+00
                       9.0560300050E+00  8.7141689353E+00  6.4213056582E+00
                       1.2074706673E+01  3.4856675741E+00  6.4213056582E+00
                       1.5093383342E+01 -1.7428337871E+00  6.4213056582E+00
                       3.0186766683E+00  1.7428337871E+00  1.9263916975E+01
                       6.0373533367E+00 -3.4856675741E+00  1.9263916975E+01
                       9.0560300050E+00 -8.7141689353E+00  1.9263916975E+01
                       6.0373533367E+00  6.9713351483E+00  1.9263916975E+01
                       9.0560300050E+00  1.7428337871E+00  1.9263916975E+01
                       1.2074706673E+01 -3.4856675741E+00  1.9263916975E+01
                       9.0560300050E+00  1.2199836509E+01  1.9263916975E+01
                       1.2074706673E+01  6.9713351483E+00  1.9263916975E+01
                       1.5093383342E+01  1.7428337871E+00  1.9263916975E+01
                       3.0186766683E+00 -1.7428337871E+00  1.6316056503E+01
                       6.0373533367E+00 -6.9713351483E+00  1.6316056503E+01
                       9.0560300050E+00 -1.2199836509E+01  1.6316056503E+01
                       6.0373533367E+00  3.4856675741E+00  1.6316056503E+01
                       9.0560300050E+00 -1.7428337871E+00  1.6316056503E+01
                       1.2074706673E+01 -6.9713351483E+00  1.6316056503E+01
                       9.0560300050E+00  8.7141689353E+00  1.6316056503E+01
                       1.2074706673E+01  3.4856675741E+00  1.6316056503E+01
                       1.5093383342E+01 -1.7428337871E+00  1.6316056503E+01
                       3.0186766683E+00  1.7428337871E+00  9.3691661295E+00
                       6.0373533367E+00 -3.4856675741E+00  9.3691661295E+00
                       9.0560300050E+00 -8.7141689353E+00  9.3691661295E+00
                       6.0373533367E+00  6.9713351483E+00  9.3691661295E+00
                       9.0560300050E+00  1.7428337871E+00  9.3691661295E+00
                       1.2074706673E+01 -3.4856675741E+00  9.3691661295E+00
                       9.0560300050E+00  1.2199836509E+01  9.3691661295E+00
                       1.2074706673E+01  6.9713351483E+00  9.3691661295E+00
                       1.5093383342E+01  1.7428337871E+00  9.3691661295E+00
                       3.0186766683E+00 -1.7428337871E+00  2.2211777446E+01
                       6.0373533367E+00 -6.9713351483E+00  2.2211777446E+01
                       9.0560300050E+00 -1.2199836509E+01  2.2211777446E+01
                       6.0373533367E+00  3.4856675741E+00  2.2211777446E+01
                       9.0560300050E+00 -1.7428337871E+00  2.2211777446E+01
                       1.2074706673E+01 -6.9713351483E+00  2.2211777446E+01
                       9.0560300050E+00  8.7141689353E+00  2.2211777446E+01
                       1.2074706673E+01  3.4856675741E+00  2.2211777446E+01
                       1.5093383342E+01 -1.7428337871E+00  2.2211777446E+01
                       3.0186766683E+00  1.7428337871E+00  3.4734451870E+00
                       6.0373533367E+00 -3.4856675741E+00  3.4734451870E+00
                       9.0560300050E+00 -8.7141689353E+00  3.4734451870E+00
                       6.0373533367E+00  6.9713351483E+00  3.4734451870E+00
                       9.0560300050E+00  1.7428337871E+00  3.4734451870E+00
                       1.2074706673E+01 -3.4856675741E+00  3.4734451870E+00
                       9.0560300050E+00  1.2199836509E+01  3.4734451870E+00
                       1.2074706673E+01  6.9713351483E+00  3.4734451870E+00
                       1.5093383342E+01  1.7428337871E+00  3.4734451870E+00
             xred      2.2285857868E-01  1.1111111111E-01  2.5063635646E-01
                       5.5555555556E-01  1.1111111111E-01  2.5000000000E-01
                       8.8888888889E-01  1.1111111111E-01  2.5000000000E-01
                       2.2222222222E-01  4.4444444444E-01  2.5000000000E-01
                       5.5555555556E-01  4.4444444444E-01  2.5000000000E-01
                       8.8888888889E-01  4.4444444444E-01  2.5000000000E-01
                       2.2222222222E-01  7.7777777778E-01  2.5000000000E-01
                       5.5555555556E-01  7.7777777778E-01  2.5000000000E-01
                       8.8888888889E-01  7.7777777778E-01  2.5000000000E-01
                       1.1111111111E-01  2.2222222222E-01  7.5000000000E-01
                       4.4444444444E-01  2.2222222222E-01  7.5000000000E-01
                       7.7777777778E-01  2.2222222222E-01  7.5000000000E-01
                       1.1111111111E-01  5.5555555556E-01  7.5000000000E-01
                       4.4444444444E-01  5.5555555556E-01  7.5000000000E-01
                       7.7777777778E-01  5.5555555556E-01  7.5000000000E-01
                       1.1111111111E-01  8.8888888889E-01  7.5000000000E-01
                       4.4444444444E-01  8.8888888889E-01  7.5000000000E-01
                       7.7777777778E-01  8.8888888889E-01  7.5000000000E-01
                       2.2222222222E-01  1.1111111111E-01  6.3523126650E-01
                       5.5555555556E-01  1.1111111111E-01  6.3523126650E-01
                       8.8888888889E-01  1.1111111111E-01  6.3523126650E-01
                       2.2222222222E-01  4.4444444444E-01  6.3523126650E-01
                       5.5555555556E-01  4.4444444444E-01  6.3523126650E-01
                       8.8888888889E-01  4.4444444444E-01  6.3523126650E-01
                       2.2222222222E-01  7.7777777778E-01  6.3523126650E-01
                       5.5555555556E-01  7.7777777778E-01  6.3523126650E-01
                       8.8888888889E-01  7.7777777778E-01  6.3523126650E-01
                       1.1111111111E-01  2.2222222222E-01  3.6476873350E-01
                       4.4444444444E-01  2.2222222222E-01  3.6476873350E-01
                       7.7777777778E-01  2.2222222222E-01  3.6476873350E-01
                       1.1111111111E-01  5.5555555556E-01  3.6476873350E-01
                       4.4444444444E-01  5.5555555556E-01  3.6476873350E-01
                       7.7777777778E-01  5.5555555556E-01  3.6476873350E-01
                       1.1111111111E-01  8.8888888889E-01  3.6476873350E-01
                       4.4444444444E-01  8.8888888889E-01  3.6476873350E-01
                       7.7777777778E-01  8.8888888889E-01  3.6476873350E-01
                       2.2222222222E-01  1.1111111111E-01  8.6476873350E-01
                       5.5555555556E-01  1.1111111111E-01  8.6476873350E-01
                       8.8888888889E-01  1.1111111111E-01  8.6476873350E-01
                       2.2222222222E-01  4.4444444444E-01  8.6476873350E-01
                       5.5555555556E-01  4.4444444444E-01  8.6476873350E-01
                       8.8888888889E-01  4.4444444444E-01  8.6476873350E-01
                       2.2222222222E-01  7.7777777778E-01  8.6476873350E-01
                       5.5555555556E-01  7.7777777778E-01  8.6476873350E-01
                       8.8888888889E-01  7.7777777778E-01  8.6476873350E-01
                       1.1111111111E-01  2.2222222222E-01  1.3523126650E-01
                       4.4444444444E-01  2.2222222222E-01  1.3523126650E-01
                       7.7777777778E-01  2.2222222222E-01  1.3523126650E-01
                       1.1111111111E-01  5.5555555556E-01  1.3523126650E-01
                       4.4444444444E-01  5.5555555556E-01  1.3523126650E-01
                       7.7777777778E-01  5.5555555556E-01  1.3523126650E-01
                       1.1111111111E-01  8.8888888889E-01  1.3523126650E-01
                       4.4444444444E-01  8.8888888889E-01  1.3523126650E-01
                       7.7777777778E-01  8.8888888889E-01  1.3523126650E-01
            znucl       42.00000   16.00000
 
================================================================================


- Timing analysis has been suppressed with timopt=0



================================================================================

 Suggested references for the acknowledgment of ABINIT usage.

 The users of ABINIT have little formal obligations with respect to the ABINIT group
 (those specified in the GNU General Public License, http://www.gnu.org/copyleft/gpl.txt).
 However, it is common practice in the scientific literature,
 to acknowledge the efforts of people that have made the research possible.
 In this spirit, please find below suggested citations of work written by ABINIT developers,
 corresponding to implementations inside of ABINIT that you have used in the present run.
 Note also that it will be of great value to readers of publications presenting these results,
 to read papers enabling them to understand the theoretical formalism and details
 of the ABINIT implementation.
 For information on why they are suggested, see also https://docs.abinit.org/theory/acknowledgments.
-
- [1] Large scale ab initio calculations based on three levels of parallelization
- F. Bottin, S. Leroux, A. Knyazev, G. Zerah, Comput. Mat. Science 42, 329, (2008).
- Comment: in case LOBPCG algorithm is used (wfoptalg=4/14/114).
- Strong suggestion to cite this paper in your publications.
- This paper is also available at http://www.arxiv.org/abs/0707.3405
- DOI and bibtex: see https://docs.abinit.org/theory/bibliography/#bottin2008
-
- [2] The Abinit project: Impact, environment and recent developments.
- Computer Phys. Comm. 248, 107042 (2020).
- X.Gonze, B. Amadon, G. Antonius, F.Arnardi, L.Baguet, J.-M.Beuken,
- J.Bieder, F.Bottin, J.Bouchet, E.Bousquet, N.Brouwer, F.Bruneval,
- G.Brunin, T.Cavignac, J.-B. Charraud, Wei Chen, M.Cote, S.Cottenier,
- J.Denier, G.Geneste, Ph.Ghosez, M.Giantomassi, Y.Gillet, O.Gingras,
- D.R.Hamann, G.Hautier, Xu He, N.Helbig, N.Holzwarth, Y.Jia, F.Jollet,
- W.Lafargue-Dit-Hauret, K.Lejaeghere, M.A.L.Marques, A.Martin, C.Martins,
- H.P.C. Miranda, F.Naccarato, K. Persson, G.Petretto, V.Planes, Y.Pouillon,
- S.Prokhorenko, F.Ricci, G.-M.Rignanese, A.H.Romero, M.M.Schmitt, M.Torrent,
- M.J.van Setten, B.Van Troeye, M.J.Verstraete, G.Zerah and J.W.Zwanzig
- Comment: the fifth generic paper describing the ABINIT project.
- Note that a version of this paper, that is not formatted for Computer Phys. Comm. 
- is available at https://www.abinit.org/sites/default/files/ABINIT20.pdf .
- The licence allows the authors to put it on the Web.
- DOI and bibtex: see https://docs.abinit.org/theory/bibliography/#gonze2020
-
- [3] Optimized norm-conserving Vanderbilt pseudopotentials.
- D.R. Hamann, Phys. Rev. B 88, 085117 (2013).
- Comment: Some pseudopotential generated using the ONCVPSP code were used.
- DOI and bibtex: see https://docs.abinit.org/theory/bibliography/#hamann2013
-
- [4] ABINIT: Overview, and focus on selected capabilities
- J. Chem. Phys. 152, 124102 (2020).
- A. Romero, D.C. Allan, B. Amadon, G. Antonius, T. Applencourt, L.Baguet,
- J.Bieder, F.Bottin, J.Bouchet, E.Bousquet, F.Bruneval,
- G.Brunin, D.Caliste, M.Cote,
- J.Denier, C. Dreyer, Ph.Ghosez, M.Giantomassi, Y.Gillet, O.Gingras,
- D.R.Hamann, G.Hautier, F.Jollet, G. Jomard,
- A.Martin, 
- H.P.C. Miranda, F.Naccarato, G.Petretto, N.A. Pike, V.Planes,
- S.Prokhorenko, T. Rangel, F.Ricci, G.-M.Rignanese, M.Royo, M.Stengel, M.Torrent,
- M.J.van Setten, B.Van Troeye, M.J.Verstraete, J.Wiktor, J.W.Zwanziger, and X.Gonze.
- Comment: a global overview of ABINIT, with focus on selected capabilities .
- Note that a version of this paper, that is not formatted for J. Chem. Phys 
- is available at https://www.abinit.org/sites/default/files/ABINIT20_JPC.pdf .
- The licence allows the authors to put it on the Web.
- DOI and bibtex: see https://docs.abinit.org/theory/bibliography/#romero2020
-
- [5] Recent developments in the ABINIT software package.
- Computer Phys. Comm. 205, 106 (2016).
- X.Gonze, F.Jollet, F.Abreu Araujo, D.Adams, B.Amadon, T.Applencourt,
- C.Audouze, J.-M.Beuken, J.Bieder, A.Bokhanchuk, E.Bousquet, F.Bruneval
- D.Caliste, M.Cote, F.Dahm, F.Da Pieve, M.Delaveau, M.Di Gennaro,
- B.Dorado, C.Espejo, G.Geneste, L.Genovese, A.Gerossier, M.Giantomassi,
- Y.Gillet, D.R.Hamann, L.He, G.Jomard, J.Laflamme Janssen, S.Le Roux,
- A.Levitt, A.Lherbier, F.Liu, I.Lukacevic, A.Martin, C.Martins,
- M.J.T.Oliveira, S.Ponce, Y.Pouillon, T.Rangel, G.-M.Rignanese,
- A.H.Romero, B.Rousseau, O.Rubel, A.A.Shukri, M.Stankovski, M.Torrent,
- M.J.Van Setten, B.Van Troeye, M.J.Verstraete, D.Waroquier, J.Wiktor,
- B.Xu, A.Zhou, J.W.Zwanziger.
- Comment: the fourth generic paper describing the ABINIT project.
- Note that a version of this paper, that is not formatted for Computer Phys. Comm. 
- is available at https://www.abinit.org/sites/default/files/ABINIT16.pdf .
- The licence allows the authors to put it on the Web.
- DOI and bibtex: see https://docs.abinit.org/theory/bibliography/#gonze2016
-
- Proc.   0 individual time (sec): cpu=        222.2  wall=        225.3
 
================================================================================
 
 Calculation completed.
.Delivered   0 WARNINGs and   0 COMMENTs to log file.
+Overall time at end (sec) : cpu=      27877.8  wall=      28158.0
