
.Version 10.0.9 of ABINIT, released Sep 2024.
.(MPI version, prepared for a x86_64_linux_intel2021.6 computer) 

.Copyright (C) 1998-2024 ABINIT group . 
 ABINIT comes with ABSOLUTELY NO WARRANTY.
 It is free software, and you are welcome to redistribute it
 under certain conditions (GNU General Public License,
 see ~abinit/COPYING or http://www.gnu.org/copyleft/gpl.txt).

 ABINIT is a project of the Universite Catholique de Louvain,
 Corning Inc. and other collaborators, see ~abinit/doc/developers/contributors.txt .
 Please read https://docs.abinit.org/theory/acknowledgments for suggested
 acknowledgments of the ABINIT effort.
 For more information, see https://www.abinit.org .

.Starting date : Mon  8 Dec 2025.
- ( at 16h31 )
  
- input  file    -> ab.in
- output file    -> ab.abo
- root for input  files -> abi
- root for output files -> abo
 
 Symmetries : space group P1 (#  1); Bravais aP (primitive triclinic)
================================================================================
 Values of the parameters that define the memory need of the present run
     intxc =       0    ionmov =       0      iscf =       7    lmnmax =       6
     lnmax =       6     mgfft =     120  mpssoang =       3    mqgrid =    5171
     natom =      54  nloc_mem =       1    nspden =       1   nspinor =       1
    nsppol =       1      nsym =       1    n1xccc =    2501    ntypat =       2
    occopt =       1   xclevel =       2
-    mband =         280        mffmem =           1         mkmem =           1
       mpw =        1253          nfft =      135000          nkpt =           5
================================================================================
P This job should need less than                      71.205 Mbytes of memory.
  Rough estimation (10% accuracy) of disk space for files :
_ WF disk file :    133.837 Mbytes ; DEN or POT disk file :      1.032 Mbytes.
================================================================================
 
--------------------------------------------------------------------------------
------------- Echo of variables that govern the present computation ------------
--------------------------------------------------------------------------------
-
- outvars: echo of selected default values                                      
-   iomode0 =  0 , fftalg0 =512 , wfoptalg0 =  0
-
- outvars: echo of global parameters not present in the input file              
-  max_nthreads =    0
-
 -outvars: echo values of preprocessed input variables --------
-          iomode           1
            acell      1.0000000000E+00  1.0000000000E+00  1.0000000000E+00 Bohr
              amu      9.59400000E+01  3.20660000E+01
           bandpp          14
          chkprim           0
     densfor_pred           6
           diemac      1.20000000E+01
             ecut      2.00000000E+01 Hartree
-          fftalg         401
           istwfk        2    0    0    0    0
              ixc          11
              kpt      0.00000000E+00  0.00000000E+00  0.00000000E+00
                       3.33333333E-01  0.00000000E+00  0.00000000E+00
                       0.00000000E+00  3.33333333E-01  0.00000000E+00
                       3.33333333E-01  3.33333333E-01  0.00000000E+00
                      -3.33333333E-01  3.33333333E-01  0.00000000E+00
         kptrlatt        3    0    0      0    3    0      0    0    1
          kptrlen      2.56852226E+01
P           mkmem           1
            natom          54
            nband         280
            ngfft          75      75     120
             nkpt           5
    nblock_lobpcg           4
-          npband           5
-           npfft           5
-        np_spkpt           5
            nstep         100
             nsym           1
           ntypat           2
              occ      2.000000  2.000000  2.000000  2.000000  2.000000  2.000000
                       2.000000  2.000000  2.000000  2.000000  2.000000  2.000000
                       2.000000  2.000000  2.000000  2.000000  2.000000  2.000000
                       2.000000  2.000000  2.000000  2.000000  2.000000  2.000000
                       2.000000  2.000000  2.000000  2.000000  2.000000  2.000000
                       2.000000  2.000000  2.000000  2.000000  2.000000  2.000000
                       2.000000  2.000000  2.000000  2.000000  2.000000  2.000000
                       2.000000  2.000000  2.000000  2.000000  2.000000  2.000000
                       2.000000  2.000000  2.000000  2.000000  2.000000  2.000000
                       2.000000  2.000000  2.000000  2.000000  2.000000  2.000000
                       2.000000  2.000000  2.000000  2.000000  2.000000  2.000000
                       2.000000  2.000000  2.000000  2.000000  2.000000  2.000000
                       2.000000  2.000000  2.000000  2.000000  2.000000  2.000000
                       2.000000  2.000000  2.000000  2.000000  2.000000  2.000000
                       2.000000  2.000000  2.000000  2.000000  2.000000  2.000000
                       2.000000  2.000000  2.000000  2.000000  2.000000  2.000000
                       2.000000  2.000000  2.000000  2.000000  2.000000  2.000000
                       2.000000  2.000000  2.000000  2.000000  2.000000  2.000000
                       2.000000  2.000000  2.000000  2.000000  2.000000  2.000000
                       2.000000  2.000000  2.000000  2.000000  2.000000  2.000000
                       2.000000  2.000000  2.000000  2.000000  2.000000  2.000000
                       2.000000  2.000000  2.000000  2.000000  2.000000  2.000000
                       2.000000  2.000000  2.000000  2.000000  2.000000  2.000000
                       2.000000  2.000000  2.000000  2.000000  2.000000  2.000000
                       2.000000  2.000000  2.000000  2.000000  2.000000  2.000000
                       2.000000  2.000000  2.000000  2.000000  2.000000  2.000000
                       2.000000  2.000000  2.000000  2.000000  2.000000  2.000000
                       2.000000  2.000000  2.000000  2.000000  2.000000  2.000000
                       2.000000  2.000000  2.000000  2.000000  2.000000  2.000000
                       2.000000  2.000000  2.000000  2.000000  2.000000  2.000000
                       2.000000  2.000000  2.000000  2.000000  2.000000  2.000000
                       2.000000  2.000000  2.000000  2.000000  2.000000  2.000000
                       2.000000  2.000000  2.000000  2.000000  2.000000  2.000000
                       2.000000  2.000000  2.000000  2.000000  2.000000  2.000000
                       2.000000  2.000000  2.000000  2.000000  2.000000  2.000000
                       2.000000  2.000000  2.000000  2.000000  2.000000  2.000000
                       2.000000  2.000000  2.000000  2.000000  2.000000  2.000000
                       2.000000  2.000000  2.000000  2.000000  2.000000  2.000000
                       2.000000  2.000000  2.000000  2.000000  2.000000  2.000000
                       0.000000  0.000000  0.000000  0.000000  0.000000  0.000000
                       0.000000  0.000000  0.000000  0.000000  0.000000  0.000000
                       0.000000  0.000000  0.000000  0.000000  0.000000  0.000000
                       0.000000  0.000000  0.000000  0.000000  0.000000  0.000000
                       0.000000  0.000000  0.000000  0.000000  0.000000  0.000000
                       0.000000  0.000000  0.000000  0.000000  0.000000  0.000000
                       0.000000  0.000000  0.000000  0.000000  0.000000  0.000000
                       0.000000  0.000000  0.000000  0.000000
           ortalg          -2
        paral_kgb           1
           prtden           0
        prtposcar           1
            prtwf           0
            rprim      9.0560300050E+00 -1.5685504084E+01  0.0000000000E+00
                       9.0560300050E+00  1.5685504084E+01  0.0000000000E+00
                       0.0000000000E+00  0.0000000000E+00  2.5685222633E+01
          spgroup           1
           toldfe      1.00000000E-09 Hartree
           tolsym      1.00000000E-08
            typat      1  1  1  1  1  1  1  1  1  1  1  1  1  1  1  1  1  1  2  2
                       2  2  2  2  2  2  2  2  2  2  2  2  2  2  2  2  2  2  2  2
                       2  2  2  2  2  2  2  2  2  2  2  2  2  2
         wfoptalg         114
              wtk        0.11111    0.22222    0.22222    0.22222    0.22222
           xangst      1.5974148930E+00 -9.2226791849E-01  3.3980086037E+00
                       3.1948297860E+00 -3.6890716739E+00  3.3980086037E+00
                       4.7922446790E+00 -6.4558754293E+00  3.3980086037E+00
                       3.1948297860E+00  1.8445358369E+00  3.3980086037E+00
                       4.7922446790E+00 -9.2226791849E-01  3.3980086037E+00
                       6.3896595720E+00 -3.6890716739E+00  3.3980086037E+00
                       4.7922446790E+00  4.6113395923E+00  3.3980086037E+00
                       6.3896595720E+00  1.8445358369E+00  3.3980086037E+00
                       7.9870744650E+00 -9.2226791849E-01  3.3980086037E+00
                       1.5974148930E+00  9.2226791849E-01  1.0194025811E+01
                       3.1948297860E+00 -1.8445358369E+00  1.0194025811E+01
                       4.7922446790E+00 -4.6113395923E+00  1.0194025811E+01
                       3.1948297860E+00  3.6890716739E+00  1.0194025811E+01
                       4.7922446790E+00  9.2226791849E-01  1.0194025811E+01
                       6.3896595720E+00 -1.8445358369E+00  1.0194025811E+01
                       4.7922446790E+00  6.4558754293E+00  1.0194025811E+01
                       6.3896595720E+00  3.6890716739E+00  1.0194025811E+01
                       7.9870744650E+00  9.2226791849E-01  1.0194025811E+01
                       1.5943653171E+00 -9.1698589816E-01  8.6254358568E+00
                       3.1948297860E+00 -3.6890716739E+00  8.6340852357E+00
                       4.7922446790E+00 -6.4558754293E+00  8.6340852357E+00
                       3.1948297860E+00  1.8445358369E+00  8.6340852357E+00
                       4.7922446790E+00 -9.2226791849E-01  8.6340852357E+00
                       6.3896595720E+00 -3.6890716739E+00  8.6340852357E+00
                       4.7922446790E+00  4.6113395923E+00  8.6340852357E+00
                       6.3896595720E+00  1.8445358369E+00  8.6340852357E+00
                       7.9870744650E+00 -9.2226791849E-01  8.6340852357E+00
                       1.5974148930E+00  9.2226791849E-01  4.9579491792E+00
                       3.1948297860E+00 -1.8445358369E+00  4.9579491792E+00
                       4.7922446790E+00 -4.6113395923E+00  4.9579491792E+00
                       3.1948297860E+00  3.6890716739E+00  4.9579491792E+00
                       4.7922446790E+00  9.2226791849E-01  4.9579491792E+00
                       6.3896595720E+00 -1.8445358369E+00  4.9579491792E+00
                       4.7922446790E+00  6.4558754293E+00  4.9579491792E+00
                       6.3896595720E+00  3.6890716739E+00  4.9579491792E+00
                       7.9870744650E+00  9.2226791849E-01  4.9579491792E+00
                       1.5974148930E+00 -9.2226791849E-01  1.1753966387E+01
                       3.1948297860E+00 -3.6890716739E+00  1.1753966387E+01
                       4.7922446790E+00 -6.4558754293E+00  1.1753966387E+01
                       3.1948297860E+00  1.8445358369E+00  1.1753966387E+01
                       4.7922446790E+00 -9.2226791849E-01  1.1753966387E+01
                       6.3896595720E+00 -3.6890716739E+00  1.1753966387E+01
                       4.7922446790E+00  4.6113395923E+00  1.1753966387E+01
                       6.3896595720E+00  1.8445358369E+00  1.1753966387E+01
                       7.9870744650E+00 -9.2226791849E-01  1.1753966387E+01
                       1.5974148930E+00  9.2226791849E-01  1.8380680282E+00
                       3.1948297860E+00 -1.8445358369E+00  1.8380680282E+00
                       4.7922446790E+00 -4.6113395923E+00  1.8380680282E+00
                       3.1948297860E+00  3.6890716739E+00  1.8380680282E+00
                       4.7922446790E+00  9.2226791849E-01  1.8380680282E+00
                       6.3896595720E+00 -1.8445358369E+00  1.8380680282E+00
                       4.7922446790E+00  6.4558754293E+00  1.8380680282E+00
                       6.3896595720E+00  3.6890716739E+00  1.8380680282E+00
                       7.9870744650E+00  9.2226791849E-01  1.8380680282E+00
            xcart      3.0186766683E+00 -1.7428337871E+00  6.4213056582E+00
                       6.0373533367E+00 -6.9713351483E+00  6.4213056582E+00
                       9.0560300050E+00 -1.2199836509E+01  6.4213056582E+00
                       6.0373533367E+00  3.4856675741E+00  6.4213056582E+00
                       9.0560300050E+00 -1.7428337871E+00  6.4213056582E+00
                       1.2074706673E+01 -6.9713351483E+00  6.4213056582E+00
                       9.0560300050E+00  8.7141689353E+00  6.4213056582E+00
                       1.2074706673E+01  3.4856675741E+00  6.4213056582E+00
                       1.5093383342E+01 -1.7428337871E+00  6.4213056582E+00
                       3.0186766683E+00  1.7428337871E+00  1.9263916975E+01
                       6.0373533367E+00 -3.4856675741E+00  1.9263916975E+01
                       9.0560300050E+00 -8.7141689353E+00  1.9263916975E+01
                       6.0373533367E+00  6.9713351483E+00  1.9263916975E+01
                       9.0560300050E+00  1.7428337871E+00  1.9263916975E+01
                       1.2074706673E+01 -3.4856675741E+00  1.9263916975E+01
                       9.0560300050E+00  1.2199836509E+01  1.9263916975E+01
                       1.2074706673E+01  6.9713351483E+00  1.9263916975E+01
                       1.5093383342E+01  1.7428337871E+00  1.9263916975E+01
                       3.0129138052E+00 -1.7328522152E+00  1.6299711546E+01
                       6.0373533367E+00 -6.9713351483E+00  1.6316056503E+01
                       9.0560300050E+00 -1.2199836509E+01  1.6316056503E+01
                       6.0373533367E+00  3.4856675741E+00  1.6316056503E+01
                       9.0560300050E+00 -1.7428337871E+00  1.6316056503E+01
                       1.2074706673E+01 -6.9713351483E+00  1.6316056503E+01
                       9.0560300050E+00  8.7141689353E+00  1.6316056503E+01
                       1.2074706673E+01  3.4856675741E+00  1.6316056503E+01
                       1.5093383342E+01 -1.7428337871E+00  1.6316056503E+01
                       3.0186766683E+00  1.7428337871E+00  9.3691661295E+00
                       6.0373533367E+00 -3.4856675741E+00  9.3691661295E+00
                       9.0560300050E+00 -8.7141689353E+00  9.3691661295E+00
                       6.0373533367E+00  6.9713351483E+00  9.3691661295E+00
                       9.0560300050E+00  1.7428337871E+00  9.3691661295E+00
                       1.2074706673E+01 -3.4856675741E+00  9.3691661295E+00
                       9.0560300050E+00  1.2199836509E+01  9.3691661295E+00
                       1.2074706673E+01  6.9713351483E+00  9.3691661295E+00
                       1.5093383342E+01  1.7428337871E+00  9.3691661295E+00
                       3.0186766683E+00 -1.7428337871E+00  2.2211777446E+01
                       6.0373533367E+00 -6.9713351483E+00  2.2211777446E+01
                       9.0560300050E+00 -1.2199836509E+01  2.2211777446E+01
                       6.0373533367E+00  3.4856675741E+00  2.2211777446E+01
                       9.0560300050E+00 -1.7428337871E+00  2.2211777446E+01
                       1.2074706673E+01 -6.9713351483E+00  2.2211777446E+01
                       9.0560300050E+00  8.7141689353E+00  2.2211777446E+01
                       1.2074706673E+01  3.4856675741E+00  2.2211777446E+01
                       1.5093383342E+01 -1.7428337871E+00  2.2211777446E+01
                       3.0186766683E+00  1.7428337871E+00  3.4734451870E+00
                       6.0373533367E+00 -3.4856675741E+00  3.4734451870E+00
                       9.0560300050E+00 -8.7141689353E+00  3.4734451870E+00
                       6.0373533367E+00  6.9713351483E+00  3.4734451870E+00
                       9.0560300050E+00  1.7428337871E+00  3.4734451870E+00
                       1.2074706673E+01 -3.4856675741E+00  3.4734451870E+00
                       9.0560300050E+00  1.2199836509E+01  3.4734451870E+00
                       1.2074706673E+01  6.9713351483E+00  3.4734451870E+00
                       1.5093383342E+01  1.7428337871E+00  3.4734451870E+00
             xred      2.2222222222E-01  1.1111111111E-01  2.5000000000E-01
                       5.5555555556E-01  1.1111111111E-01  2.5000000000E-01
                       8.8888888889E-01  1.1111111111E-01  2.5000000000E-01
                       2.2222222222E-01  4.4444444444E-01  2.5000000000E-01
                       5.5555555556E-01  4.4444444444E-01  2.5000000000E-01
                       8.8888888889E-01  4.4444444444E-01  2.5000000000E-01
                       2.2222222222E-01  7.7777777778E-01  2.5000000000E-01
                       5.5555555556E-01  7.7777777778E-01  2.5000000000E-01
                       8.8888888889E-01  7.7777777778E-01  2.5000000000E-01
                       1.1111111111E-01  2.2222222222E-01  7.5000000000E-01
                       4.4444444444E-01  2.2222222222E-01  7.5000000000E-01
                       7.7777777778E-01  2.2222222222E-01  7.5000000000E-01
                       1.1111111111E-01  5.5555555556E-01  7.5000000000E-01
                       4.4444444444E-01  5.5555555556E-01  7.5000000000E-01
                       7.7777777778E-01  5.5555555556E-01  7.5000000000E-01
                       1.1111111111E-01  8.8888888889E-01  7.5000000000E-01
                       4.4444444444E-01  8.8888888889E-01  7.5000000000E-01
                       7.7777777778E-01  8.8888888889E-01  7.5000000000E-01
                       2.2158586576E-01  1.1111111111E-01  6.3459491004E-01
                       5.5555555556E-01  1.1111111111E-01  6.3523126650E-01
                       8.8888888889E-01  1.1111111111E-01  6.3523126650E-01
                       2.2222222222E-01  4.4444444444E-01  6.3523126650E-01
                       5.5555555556E-01  4.4444444444E-01  6.3523126650E-01
                       8.8888888889E-01  4.4444444444E-01  6.3523126650E-01
                       2.2222222222E-01  7.7777777778E-01  6.3523126650E-01
                       5.5555555556E-01  7.7777777778E-01  6.3523126650E-01
                       8.8888888889E-01  7.7777777778E-01  6.3523126650E-01
                       1.1111111111E-01  2.2222222222E-01  3.6476873350E-01
                       4.4444444444E-01  2.2222222222E-01  3.6476873350E-01
                       7.7777777778E-01  2.2222222222E-01  3.6476873350E-01
                       1.1111111111E-01  5.5555555556E-01  3.6476873350E-01
                       4.4444444444E-01  5.5555555556E-01  3.6476873350E-01
                       7.7777777778E-01  5.5555555556E-01  3.6476873350E-01
                       1.1111111111E-01  8.8888888889E-01  3.6476873350E-01
                       4.4444444444E-01  8.8888888889E-01  3.6476873350E-01
                       7.7777777778E-01  8.8888888889E-01  3.6476873350E-01
                       2.2222222222E-01  1.1111111111E-01  8.6476873350E-01
                       5.5555555556E-01  1.1111111111E-01  8.6476873350E-01
                       8.8888888889E-01  1.1111111111E-01  8.6476873350E-01
                       2.2222222222E-01  4.4444444444E-01  8.6476873350E-01
                       5.5555555556E-01  4.4444444444E-01  8.6476873350E-01
                       8.8888888889E-01  4.4444444444E-01  8.6476873350E-01
                       2.2222222222E-01  7.7777777778E-01  8.6476873350E-01
                       5.5555555556E-01  7.7777777778E-01  8.6476873350E-01
                       8.8888888889E-01  7.7777777778E-01  8.6476873350E-01
                       1.1111111111E-01  2.2222222222E-01  1.3523126650E-01
                       4.4444444444E-01  2.2222222222E-01  1.3523126650E-01
                       7.7777777778E-01  2.2222222222E-01  1.3523126650E-01
                       1.1111111111E-01  5.5555555556E-01  1.3523126650E-01
                       4.4444444444E-01  5.5555555556E-01  1.3523126650E-01
                       7.7777777778E-01  5.5555555556E-01  1.3523126650E-01
                       1.1111111111E-01  8.8888888889E-01  1.3523126650E-01
                       4.4444444444E-01  8.8888888889E-01  1.3523126650E-01
                       7.7777777778E-01  8.8888888889E-01  1.3523126650E-01
            znucl       42.00000   16.00000
 
================================================================================
 
 chkinp: Checking input parameters for consistency.
 
================================================================================
== DATASET  1 ==================================================================
-   mpi_nproc: 125, omp_nthreads: -1 (-1 if OMP is not activated)
 

--- !DatasetInfo
iteration_state: {dtset: 1, }
dimensions: {natom: 54, nkpt: 5, mband: 280, nsppol: 1, nspinor: 1, nspden: 1, mpw: 1253, }
cutoff_energies: {ecut:  20.0, pawecutdg:  -1.0, }
electrons: {nelect:   4.68000000E+02, charge:   0.00000000E+00, occopt:   1.00000000E+00, tsmear:   1.00000000E-02, }
meta: {optdriver: 0, ionmov: 0, optcell: 0, iscf: 7, paral_kgb: 1, }
...

 mkfilename: getden from: ../superc/superc_DEN
 
 Exchange-correlation functional for the present dataset will be:
  GGA: Perdew-Burke-Ernzerhof functional - ixc=11
 Citation for XC functional:
  J.P.Perdew, K.Burke, M.Ernzerhof, PRL 77, 3865 (1996)
 
 Real(R)+Recip(G) space primitive vectors, cartesian coordinates (Bohr,Bohr^-1):
 R(1)=  9.0560300-15.6855041  0.0000000  G(1)=  0.0552118 -0.0318766  0.0000000
 R(2)=  9.0560300 15.6855041  0.0000000  G(2)=  0.0552118  0.0318766  0.0000000
 R(3)=  0.0000000  0.0000000 25.6852226  G(3)=  0.0000000  0.0000000  0.0389329
 Unit cell volume ucvol=  7.2970893E+03 bohr^3
 Angles (23,13,12)=  9.00000000E+01  9.00000000E+01  1.20000000E+02 degrees
 
 getcut: wavevector=  0.0000  0.0000  0.0000  ngfft=  75  75 120
         ecut(hartree)=     20.000   => boxcut(ratio)=   2.02972
 
--- Pseudopotential description ------------------------------------------------
- pspini: atom type   1  psp file is mo.psp8
- pspatm: opening atomic psp file    mo.psp8
- Mo    ONCVPSP-3.2.3.1  r_core=   1.45541   1.45541   1.35488
- 42.00000  14.00000    170510                znucl, zion, pspdat
    8   11    2    4       600   0.00000      pspcod,pspxc,lmax,lloc,mmax,r2well
    5.99000000000000    3.00000000000000    0.00000000000000   rchrg,fchrg,qchrg
     nproj     2     2     2
     extension_switch     1
  pspatm : epsatm=   15.95693586
         --- l  ekb(1:nproj) -->
             0   13.833287    1.350687
             1    8.015347    1.134034
             2    2.765699    0.969071
 pspatm: atomic psp has been read  and splines computed
 
- pspini: atom type   2  psp file is s.psp8
- pspatm: opening atomic psp file    s.psp8
- S     ONCVPSP-3.2.3.1  r_core=   1.45376   1.45376   1.61851
- 16.00000   6.00000    170504                znucl, zion, pspdat
    8   11    2    4       600   0.00000      pspcod,pspxc,lmax,lloc,mmax,r2well
    5.99000000000000    6.00000000000000    0.00000000000000   rchrg,fchrg,qchrg
     nproj     2     2     2
     extension_switch     1
  pspatm : epsatm=    9.01821879
         --- l  ekb(1:nproj) -->
             0    6.763951    0.574108
             1    3.227080    0.887329
             2   -3.547662   -0.986524
 pspatm: atomic psp has been read  and splines computed
 
   2.86360178E+05                                ecore*ucvol(ha*bohr**3)
--------------------------------------------------------------------------------
 
_setup2: Arith. and geom. avg. npw (full set) are    1253.667    1253.665
 
================================================================================

--- !BeginCycle
iteration_state: {dtset: 1, }
solver: {iscf: 7, nstep: 100, nline: 4, wfoptalg: 114, }
tolerances: {toldfe: 1.00E-09, }
...
 
     iter   Etot(hartree)      deltaE(h)  residm     vres2
 ETOT  1  -1662.4674286480    -1.662E+03 4.844E-03 2.599E+02
 ETOT  2  -1662.6442394954    -1.768E-01 2.419E-04 3.681E+02
 ETOT  3  -1662.5557021524     8.854E-02 7.652E-03 5.658E+02
 ETOT  4  -1662.6692689301    -1.136E-01 9.020E-03 5.682E+01
 ETOT  5  -1662.7008761355    -3.161E-02 2.703E-03 1.337E+00
 ETOT  6  -1662.7080475224    -7.171E-03 8.906E-05 1.654E+00
 ETOT  7  -1662.7084119021    -3.644E-04 6.656E-05 1.582E-01
 ETOT  8  -1662.7084578140    -4.591E-05 1.103E-05 4.174E-02
 ETOT  9  -1662.7084574531     3.609E-07 1.313E-05 6.314E-02
 ETOT 10  -1662.7084620371    -4.584E-06 4.377E-06 2.374E-02
 ETOT 11  -1662.7084637353    -1.698E-06 3.645E-06 5.125E-03
 ETOT 12  -1662.7084639012    -1.659E-07 1.873E-06 3.791E-03
 ETOT 13  -1662.7084640501    -1.489E-07 2.432E-06 1.807E-03
 ETOT 14  -1662.7084641680    -1.179E-07 1.116E-06 5.914E-04
 ETOT 15  -1662.7084642057    -3.776E-08 8.884E-07 1.622E-04
 ETOT 16  -1662.7084642248    -1.906E-08 5.140E-07 4.438E-05
 ETOT 17  -1662.7084642369    -1.208E-08 4.119E-07 3.505E-05
 ETOT 18  -1662.7084642433    -6.417E-09 1.918E-07 8.143E-06
 ETOT 19  -1662.7084642435    -1.926E-10 1.550E-07 3.639E-06
 ETOT 20  -1662.7084642449    -1.404E-09 9.677E-08 1.169E-06
 ETOT 21  -1662.7084642450    -1.489E-10 9.054E-08 2.127E-07
 ETOT 22  -1662.7084642450     1.523E-11 5.937E-08 1.384E-07
 
 At SCF step   22, etot is converged : 
  for the second time, diff in etot=  1.523E-11 < toldfe=  1.000E-09
 
 Cartesian components of stress tensor (hartree/bohr^3)
  sigma(1 1)=  6.94088882E-04  sigma(3 2)= -3.66479093E-07
  sigma(2 2)=  6.93937128E-04  sigma(3 1)=  2.09227464E-07
  sigma(3 3)=  6.59104025E-04  sigma(2 1)= -4.35320301E-08
 

--- !ResultsGS
iteration_state: {dtset: 1, }
comment   : Summary of ground state results
lattice_vectors:
- [  9.0560300, -15.6855041,   0.0000000, ]
- [  9.0560300,  15.6855041,   0.0000000, ]
- [  0.0000000,   0.0000000,  25.6852226, ]
lattice_lengths: [  18.11206,   18.11206,   25.68522, ]
lattice_angles: [ 90.000,  90.000, 120.000, ] # degrees, (23, 13, 12)
lattice_volume:   7.2970893E+03
convergence: {deltae:  1.523E-11, res2:  1.384E-07, residm:  5.937E-08, diffor: null, }
etotal    :  -1.66270846E+03
entropy   :   0.00000000E+00
fermie    :   2.46236945E-01
cartesian_stress_tensor: # hartree/bohr^3
- [  6.94088882E-04,  -4.35320301E-08,   2.09227464E-07, ]
- [ -4.35320301E-08,   6.93937128E-04,  -3.66479093E-07, ]
- [  2.09227464E-07,  -3.66479093E-07,   6.59104025E-04, ]
pressure_GPa:  -2.0076E+01
xred      :
- [  2.2222E-01,   1.1111E-01,   2.5000E-01, Mo]
- [  5.5556E-01,   1.1111E-01,   2.5000E-01, Mo]
- [  8.8889E-01,   1.1111E-01,   2.5000E-01, Mo]
- [  2.2222E-01,   4.4444E-01,   2.5000E-01, Mo]
- [  5.5556E-01,   4.4444E-01,   2.5000E-01, Mo]
- [  8.8889E-01,   4.4444E-01,   2.5000E-01, Mo]
- [  2.2222E-01,   7.7778E-01,   2.5000E-01, Mo]
- [  5.5556E-01,   7.7778E-01,   2.5000E-01, Mo]
- [  8.8889E-01,   7.7778E-01,   2.5000E-01, Mo]
- [  1.1111E-01,   2.2222E-01,   7.5000E-01, Mo]
- [  4.4444E-01,   2.2222E-01,   7.5000E-01, Mo]
- [  7.7778E-01,   2.2222E-01,   7.5000E-01, Mo]
- [  1.1111E-01,   5.5556E-01,   7.5000E-01, Mo]
- [  4.4444E-01,   5.5556E-01,   7.5000E-01, Mo]
- [  7.7778E-01,   5.5556E-01,   7.5000E-01, Mo]
- [  1.1111E-01,   8.8889E-01,   7.5000E-01, Mo]
- [  4.4444E-01,   8.8889E-01,   7.5000E-01, Mo]
- [  7.7778E-01,   8.8889E-01,   7.5000E-01, Mo]
- [  2.2159E-01,   1.1111E-01,   6.3459E-01,  S]
- [  5.5556E-01,   1.1111E-01,   6.3523E-01,  S]
- [  8.8889E-01,   1.1111E-01,   6.3523E-01,  S]
- [  2.2222E-01,   4.4444E-01,   6.3523E-01,  S]
- [  5.5556E-01,   4.4444E-01,   6.3523E-01,  S]
- [  8.8889E-01,   4.4444E-01,   6.3523E-01,  S]
- [  2.2222E-01,   7.7778E-01,   6.3523E-01,  S]
- [  5.5556E-01,   7.7778E-01,   6.3523E-01,  S]
- [  8.8889E-01,   7.7778E-01,   6.3523E-01,  S]
- [  1.1111E-01,   2.2222E-01,   3.6477E-01,  S]
- [  4.4444E-01,   2.2222E-01,   3.6477E-01,  S]
- [  7.7778E-01,   2.2222E-01,   3.6477E-01,  S]
- [  1.1111E-01,   5.5556E-01,   3.6477E-01,  S]
- [  4.4444E-01,   5.5556E-01,   3.6477E-01,  S]
- [  7.7778E-01,   5.5556E-01,   3.6477E-01,  S]
- [  1.1111E-01,   8.8889E-01,   3.6477E-01,  S]
- [  4.4444E-01,   8.8889E-01,   3.6477E-01,  S]
- [  7.7778E-01,   8.8889E-01,   3.6477E-01,  S]
- [  2.2222E-01,   1.1111E-01,   8.6477E-01,  S]
- [  5.5556E-01,   1.1111E-01,   8.6477E-01,  S]
- [  8.8889E-01,   1.1111E-01,   8.6477E-01,  S]
- [  2.2222E-01,   4.4444E-01,   8.6477E-01,  S]
- [  5.5556E-01,   4.4444E-01,   8.6477E-01,  S]
- [  8.8889E-01,   4.4444E-01,   8.6477E-01,  S]
- [  2.2222E-01,   7.7778E-01,   8.6477E-01,  S]
- [  5.5556E-01,   7.7778E-01,   8.6477E-01,  S]
- [  8.8889E-01,   7.7778E-01,   8.6477E-01,  S]
- [  1.1111E-01,   2.2222E-01,   1.3523E-01,  S]
- [  4.4444E-01,   2.2222E-01,   1.3523E-01,  S]
- [  7.7778E-01,   2.2222E-01,   1.3523E-01,  S]
- [  1.1111E-01,   5.5556E-01,   1.3523E-01,  S]
- [  4.4444E-01,   5.5556E-01,   1.3523E-01,  S]
- [  7.7778E-01,   5.5556E-01,   1.3523E-01,  S]
- [  1.1111E-01,   8.8889E-01,   1.3523E-01,  S]
- [  4.4444E-01,   8.8889E-01,   1.3523E-01,  S]
- [  7.7778E-01,   8.8889E-01,   1.3523E-01,  S]
cartesian_forces: # hartree/bohr
- [ -1.19018004E-07,   2.12086357E-07,   4.15310863E-06, ]
- [ -4.98780997E-07,  -7.25907910E-07,  -6.54985198E-07, ]
- [ -2.89810322E-07,  -2.24611876E-07,  -8.53777123E-07, ]
- [  2.78270358E-07,  -6.04281660E-08,  -1.09079302E-06, ]
- [  2.97463006E-07,   8.47730432E-07,  -2.51023412E-07, ]
- [  2.50942370E-07,  -4.68622865E-07,   1.53642701E-06, ]
- [  3.21508818E-07,  -4.99353006E-07,  -1.02217657E-06, ]
- [ -4.97030196E-08,   9.70093541E-08,  -4.30862305E-07, ]
- [ -1.22635206E-07,   6.05145709E-07,  -2.46364688E-07, ]
- [ -9.68935226E-05,  -3.26328711E-05,  -4.15867997E-04, ]
- [ -8.45354236E-04,   5.99573572E-04,  -1.09504589E-03, ]
- [ -7.79844159E-06,   1.21818375E-05,  -3.10098292E-05, ]
- [  2.30224455E-06,   7.00299620E-06,  -3.02322083E-05, ]
- [  1.86665068E-05,  -4.85536635E-05,  -3.41022741E-05, ]
- [ -7.24222661E-06,   3.03796237E-06,  -3.16813645E-05, ]
- [  3.67838577E-04,   4.35800117E-04,  -7.59452596E-04, ]
- [  2.56135748E-05,   2.92754330E-05,  -5.24339188E-05, ]
- [ -2.42250486E-05,  -1.57643707E-05,  -1.55518222E-05, ]
- [  6.34518850E-04,  -1.10842165E-03,   2.39313018E-03, ]
- [ -2.96921562E-05,   5.39034866E-05,   9.84824631E-05, ]
- [ -3.93392460E-05,   8.46438999E-05,   1.20515681E-04, ]
- [  2.88781710E-05,   4.19239320E-05,   1.12105168E-04, ]
- [ -2.03589515E-05,  -1.33573325E-05,   1.06744766E-04, ]
- [  3.13195190E-06,  -5.42800110E-06,   3.70341235E-05, ]
- [  1.97012365E-05,   1.93734619E-05,   1.01079839E-04, ]
- [  3.11751474E-06,  -5.36501296E-06,   3.69464099E-05, ]
- [ -5.67632250E-05,  -1.70456864E-05,   1.17745990E-04, ]
- [  3.95560708E-07,   4.72136449E-06,  -4.37573413E-05, ]
- [  2.35571136E-06,  -1.81752099E-06,  -3.89880469E-05, ]
- [ -3.97270813E-07,   1.57366129E-07,  -3.72797976E-05, ]
- [  2.24857374E-07,   9.13544002E-08,  -3.71049677E-05, ]
- [  1.10925437E-06,  -6.94941645E-08,  -3.67875111E-05, ]
- [ -1.92163170E-07,   3.66117663E-07,  -3.73944067E-05, ]
- [ -2.88601465E-06,  -2.63733901E-06,  -4.13436656E-05, ]
- [  2.97706459E-07,  -7.44618526E-07,  -3.62158260E-05, ]
- [ -1.08425740E-06,   3.14452890E-07,  -3.73694073E-05, ]
- [  1.66515146E-05,  -2.89327159E-05,  -3.38199537E-04, ]
- [  8.51524633E-06,   6.03899962E-05,  -6.42774523E-05, ]
- [  1.13313878E-05,  -4.92776811E-06,  -2.38645180E-05, ]
- [  3.32749868E-06,  -9.28407331E-06,  -2.04582694E-05, ]
- [ -5.12574593E-05,  -5.18568801E-05,  -6.75815678E-05, ]
- [ -1.19876485E-06,   2.06823065E-06,  -2.30654508E-05, ]
- [  6.00765881E-06,   2.61601857E-05,  -4.08438240E-05, ]
- [ -1.21031210E-06,   2.03514283E-06,  -2.29266382E-05, ]
- [  3.24335334E-05,  -3.70369575E-05,  -4.75588240E-05, ]
- [ -8.88500417E-08,   2.82864167E-07,   3.67633153E-05, ]
- [ -4.78377818E-07,   3.70243225E-07,   3.69620208E-05, ]
- [  2.86065036E-08,  -1.18854716E-07,   3.72896405E-05, ]
- [ -5.87622670E-08,  -7.25738171E-09,   3.72612820E-05, ]
- [ -1.78877595E-07,   7.02230379E-08,   3.76953078E-05, ]
- [  3.13741092E-08,   1.03477484E-07,   3.72712991E-05, ]
- [  8.85608371E-08,   1.88137026E-07,   3.68345245E-05, ]
- [ -8.78549298E-08,   1.40212535E-07,   3.77581489E-05, ]
- [  1.50683316E-07,   4.29537206E-08,   3.76352368E-05, ]
force_length_stats: {min:   4.44436194E-07, max:   2.71261585E-03, mean:   1.50091076E-04, }
...

 Integrated electronic density in atomic spheres:
 ------------------------------------------------
 Atom  Sphere_radius  Integrated_density
    1        2.00000         10.46136716
    2        2.00000         10.46136876
    3        2.00000         10.46137288
    4        2.00000         10.46137025
    5        2.00000         10.46136927
    6        2.00000         10.46136862
    7        2.00000         10.46137013
    8        2.00000         10.46136814
    9        2.00000         10.46136784
   10        2.00000         10.46102864
   11        2.00000         10.46007164
   12        2.00000         10.46136298
   13        2.00000         10.46136242
   14        2.00000         10.46137230
   15        2.00000         10.46136458
   16        2.00000         10.46054902
   17        2.00000         10.46136163
   18        2.00000         10.46138218
   19        2.00000          3.91864077
   20        2.00000          3.93320955
   21        2.00000          3.93326801
   22        2.00000          3.93326612
   23        2.00000          3.93321104
   24        2.00000          3.93331423
   25        2.00000          3.93323653
   26        2.00000          3.93330774
   27        2.00000          3.93323997
   28        2.00000          3.93330305
   29        2.00000          3.93329917
   30        2.00000          3.93329912
   31        2.00000          3.93329964
   32        2.00000          3.93330018
   33        2.00000          3.93329886
   34        2.00000          3.93330131
   35        2.00000          3.93329896
   36        2.00000          3.93330135
   37        2.00000          3.93321428
   38        2.00000          3.93326150
   39        2.00000          3.93332078
   40        2.00000          3.93334506
   41        2.00000          3.93323748
   42        2.00000          3.93331457
   43        2.00000          3.93331501
   44        2.00000          3.93332266
   45        2.00000          3.93326680
   46        2.00000          3.93329855
   47        2.00000          3.93329897
   48        2.00000          3.93329641
   49        2.00000          3.93329631
   50        2.00000          3.93329631
   51        2.00000          3.93329684
   52        2.00000          3.93329888
   53        2.00000          3.93329644
   54        2.00000          3.93329615
================================================================================
 
 ----iterations are completed or convergence reached----
 
 Mean square residual over all n,k,spin=   43.043E-11; max=  59.374E-09
 reduced coordinates (array xred) for   54 atoms
       0.222222222223      0.111111111110      0.250000000000
       0.555555555557      0.111111111110      0.250000000000
       0.888888888890      0.111111111110      0.250000000000
       0.222222222223      0.444444444443      0.250000000000
       0.555555555557      0.444444444443      0.250000000000
       0.888888888890      0.444444444443      0.250000000000
       0.222222222223      0.777777777777      0.250000000000
       0.555555555557      0.777777777777      0.250000000000
       0.888888888890      0.777777777777      0.250000000000
       0.111111111110      0.222222222223      0.750000000000
       0.444444444443      0.222222222223      0.750000000000
       0.777777777777      0.222222222223      0.750000000000
       0.111111111110      0.555555555557      0.750000000000
       0.444444444443      0.555555555557      0.750000000000
       0.777777777777      0.555555555557      0.750000000000
       0.111111111110      0.888888888890      0.750000000000
       0.444444444443      0.888888888890      0.750000000000
       0.777777777777      0.888888888890      0.750000000000
       0.221585865763      0.111111111110      0.634594910040
       0.555555555557      0.111111111110      0.635231266500
       0.888888888890      0.111111111110      0.635231266500
       0.222222222223      0.444444444443      0.635231266500
       0.555555555557      0.444444444443      0.635231266500
       0.888888888890      0.444444444443      0.635231266500
       0.222222222223      0.777777777777      0.635231266500
       0.555555555557      0.777777777777      0.635231266500
       0.888888888890      0.777777777777      0.635231266500
       0.111111111110      0.222222222223      0.364768733500
       0.444444444443      0.222222222223      0.364768733500
       0.777777777777      0.222222222223      0.364768733500
       0.111111111110      0.555555555557      0.364768733500
       0.444444444443      0.555555555557      0.364768733500
       0.777777777777      0.555555555557      0.364768733500
       0.111111111110      0.888888888890      0.364768733500
       0.444444444443      0.888888888890      0.364768733500
       0.777777777777      0.888888888890      0.364768733500
       0.222222222223      0.111111111110      0.864768733500
       0.555555555557      0.111111111110      0.864768733500
       0.888888888890      0.111111111110      0.864768733500
       0.222222222223      0.444444444443      0.864768733500
       0.555555555557      0.444444444443      0.864768733500
       0.888888888890      0.444444444443      0.864768733500
       0.222222222223      0.777777777777      0.864768733500
       0.555555555557      0.777777777777      0.864768733500
       0.888888888890      0.777777777777      0.864768733500
       0.111111111110      0.222222222223      0.135231266500
       0.444444444443      0.222222222223      0.135231266500
       0.777777777777      0.222222222223      0.135231266500
       0.111111111110      0.555555555557      0.135231266500
       0.444444444443      0.555555555557      0.135231266500
       0.777777777777      0.555555555557      0.135231266500
       0.111111111110      0.888888888890      0.135231266500
       0.444444444443      0.888888888890      0.135231266500
       0.777777777777      0.888888888890      0.135231266500
 rms dE/dt=  6.2448E-03; max dE/dt=  2.8127E-02; dE/dt below (all hartree)
    1       0.000004392734     -0.000002194862     -0.000106662135
    2      -0.000006881034      0.000015957196      0.000016834825
    3      -0.000000910398      0.000006201670      0.000021940840
    4      -0.000003479649     -0.000001518190      0.000028028646
    5       0.000010591467     -0.000015936924      0.000006458977
    6      -0.000009634906      0.000005132033     -0.000039452085
    7      -0.000010755975      0.000004974999      0.000026266218
    8       0.000001959975     -0.000001017540      0.000011078179
    9       0.000010590825     -0.000008327439      0.000006339317
   10       0.000365595838      0.001389387670      0.010681673485
   11       0.017060155254     -0.001749006394      0.028126508784
   12       0.000261689405     -0.000120401353      0.000796505753
   13       0.000088984552     -0.000130640733      0.000776532386
   14      -0.000930644912      0.000592598230      0.000875935887
   15       0.000113226015      0.000017987839      0.000813754286
   16       0.003504575540     -0.010166847711      0.019506720405
   17       0.000227230844     -0.000691103238      0.001346788263
   18      -0.000027901112      0.000466708857      0.000399463401
   19      -0.023132385840      0.011639984563     -0.061468070037
   20       0.001114384639     -0.000576556313     -0.002529532606
   21       0.001683927851     -0.000971370856     -0.003095460724
   22       0.000396064645     -0.000919065600     -0.002879434826
   23      -0.000025156996      0.000393941759     -0.002741751695
   24      -0.000113515762      0.000056831872     -0.000951218323
   25       0.000125455749     -0.000482243516     -0.002596246788
   26      -0.000112397018      0.000055974614     -0.000948965379
   27       0.000246667507      0.000781473641     -0.003024320593
   28       0.000070462994     -0.000077585203      0.001123928437
   29      -0.000049853904      0.000007229329      0.001001428050
   30       0.000006054285      0.000001183318      0.000957551285
   31      -0.000000615153     -0.000003415266      0.000953060741
   32      -0.000011147270     -0.000008901401      0.000944906797
   33       0.000007471197     -0.000003948516      0.000960495047
   34      -0.000015243935      0.000067557816      0.001061932640
   35      -0.000014387534      0.000009037667      0.000930222938
   36       0.000014739641      0.000004940704      0.000959852930
   37      -0.000604632627      0.000303081606      0.008686741781
   38       0.000870121428     -0.001024307870      0.001650992057
   39      -0.000179923693     -0.000025268873      0.000612976844
   40      -0.000175771076      0.000115545431      0.000525486589
   41      -0.000349223994      0.001277644382      0.001735859000
   42       0.000043285513     -0.000021531201      0.000592452623
   43       0.000355918383     -0.000464687249      0.001049094097
   44       0.000042871086     -0.000020907630      0.000588887191
   45      -0.000874674177      0.000287278284      0.001221570368
   46       0.000005229718     -0.000003578250     -0.000944262555
   47       0.000010127877     -0.000001421259     -0.000949366349
   48      -0.000002135136      0.000001659223     -0.000957781335
   49       0.000000406539      0.000000699977     -0.000957052939
   50       0.000002709626      0.000000572426     -0.000968200987
   51       0.000001327193     -0.000001853233     -0.000957310229
   52       0.000002137236     -0.000003699045     -0.000946091578
   53       0.000002983143     -0.000001349699     -0.000969815076
   54      -0.000000702620     -0.000001984355     -0.000966658051
 
 cartesian coordinates (angstrom) at end:
    1      1.59741489299321    -0.92226791849087     3.39800860373591
    2      3.19482978598643    -3.68907167390813     3.39800860373591
    3      4.79224467897964    -6.45587542932540     3.39800860373591
    4      3.19482978598643     1.84453583692640     3.39800860373591
    5      4.79224467897964    -0.92226791849087     3.39800860373591
    6      6.38965957197285    -3.68907167390813     3.39800860373591
    7      4.79224467897964     4.61133959234366     3.39800860373591
    8      6.38965957197285     1.84453583692640     3.39800860373591
    9      7.98707446496607    -0.92226791849087     3.39800860373591
   10      1.59741489299321     0.92226791849087    10.19402581120772
   11      3.19482978598643    -1.84453583692640    10.19402581120772
   12      4.79224467897964    -4.61133959234366    10.19402581120772
   13      3.19482978598643     3.68907167390814    10.19402581120772
   14      4.79224467897964     0.92226791849087    10.19402581120772
   15      6.38965957197285    -1.84453583692640    10.19402581120772
   16      4.79224467897964     6.45587542932540    10.19402581120772
   17      6.38965957197285     3.68907167390813    10.19402581120772
   18      7.98707446496607     0.92226791849087    10.19402581120772
   19      1.59436531713228    -0.91698589815822     8.62543585680729
   20      3.19482978598643    -3.68907167390813     8.63408523571622
   21      4.79224467897964    -6.45587542932540     8.63408523571622
   22      3.19482978598643     1.84453583692640     8.63408523571622
   23      4.79224467897964    -0.92226791849087     8.63408523571622
   24      6.38965957197285    -3.68907167390813     8.63408523571622
   25      4.79224467897964     4.61133959234366     8.63408523571622
   26      6.38965957197285     1.84453583692640     8.63408523571622
   27      7.98707446496607    -0.92226791849087     8.63408523571622
   28      1.59741489299321     0.92226791849087     4.95794917922740
   29      3.19482978598643    -1.84453583692640     4.95794917922740
   30      4.79224467897964    -4.61133959234366     4.95794917922740
   31      3.19482978598643     3.68907167390814     4.95794917922740
   32      4.79224467897964     0.92226791849087     4.95794917922740
   33      6.38965957197285    -1.84453583692640     4.95794917922740
   34      4.79224467897964     6.45587542932540     4.95794917922740
   35      6.38965957197285     3.68907167390813     4.95794917922740
   36      7.98707446496607     0.92226791849087     4.95794917922740
   37      1.59741489299321    -0.92226791849087    11.75396638669921
   38      3.19482978598643    -3.68907167390813    11.75396638669921
   39      4.79224467897964    -6.45587542932540    11.75396638669921
   40      3.19482978598643     1.84453583692640    11.75396638669921
   41      4.79224467897964    -0.92226791849087    11.75396638669921
   42      6.38965957197285    -3.68907167390813    11.75396638669921
   43      4.79224467897964     4.61133959234366    11.75396638669921
   44      6.38965957197285     1.84453583692640    11.75396638669921
   45      7.98707446496607    -0.92226791849087    11.75396638669921
   46      1.59741489299321     0.92226791849087     1.83806802824441
   47      3.19482978598643    -1.84453583692640     1.83806802824441
   48      4.79224467897964    -4.61133959234366     1.83806802824441
   49      3.19482978598643     3.68907167390814     1.83806802824441
   50      4.79224467897964     0.92226791849087     1.83806802824441
   51      6.38965957197285    -1.84453583692640     1.83806802824441
   52      4.79224467897964     6.45587542932540     1.83806802824441
   53      6.38965957197285     3.68907167390813     1.83806802824441
   54      7.98707446496607     0.92226791849087     1.83806802824441
 
 cartesian forces (hartree/bohr) at end:
    1     -0.00000011901800     0.00000021208636     0.00000415310863
    2     -0.00000049878100    -0.00000072590791    -0.00000065498520
    3     -0.00000028981032    -0.00000022461188    -0.00000085377712
    4      0.00000027827036    -0.00000006042817    -0.00000109079302
    5      0.00000029746301     0.00000084773043    -0.00000025102341
    6      0.00000025094237    -0.00000046862287     0.00000153642701
    7      0.00000032150882    -0.00000049935301    -0.00000102217657
    8     -0.00000004970302     0.00000009700935    -0.00000043086230
    9     -0.00000012263521     0.00000060514571    -0.00000024636469
   10     -0.00009689352264    -0.00003263287109    -0.00041586799746
   11     -0.00084535423584     0.00059957357169    -0.00109504588693
   12     -0.00000779844159     0.00001218183754    -0.00003100982924
   13      0.00000230224455     0.00000700299620    -0.00003023220833
   14      0.00001866650683    -0.00004855366353    -0.00003410227408
   15     -0.00000724222661     0.00000303796237    -0.00003168136452
   16      0.00036783857704     0.00043580011664    -0.00075945259649
   17      0.00002561357483     0.00002927543304    -0.00005243391883
   18     -0.00002422504861    -0.00001576437070    -0.00001555182222
   19      0.00063451884992    -0.00110842165004     0.00239313017839
   20     -0.00002969215624     0.00005390348660     0.00009848246313
   21     -0.00003933924601     0.00008464389986     0.00012051568145
   22      0.00002887817095     0.00004192393197     0.00011210516846
   23     -0.00002035895154    -0.00001335733255     0.00010674476599
   24      0.00000313195190    -0.00000542800110     0.00003703412354
   25      0.00001970123651     0.00001937346191     0.00010107983918
   26      0.00000311751474    -0.00000536501296     0.00003694640989
   27     -0.00005676322497    -0.00001704568641     0.00011774599043
   28      0.00000039556071     0.00000472136449    -0.00004375734127
   29      0.00000235571136    -0.00000181752099    -0.00003898804692
   30     -0.00000039727081     0.00000015736613    -0.00003727979759
   31      0.00000022485737     0.00000009135440    -0.00003710496770
   32      0.00000110925437    -0.00000006949416    -0.00003678751106
   33     -0.00000019216317     0.00000036611766    -0.00003739440673
   34     -0.00000288601465    -0.00000263733901    -0.00004134366561
   35      0.00000029770646    -0.00000074461853    -0.00003621582599
   36     -0.00000108425740     0.00000031445289    -0.00003736940727
   37      0.00001665151459    -0.00002893271589    -0.00033819953676
   38      0.00000851524633     0.00006038999625    -0.00006427745228
   39      0.00001133138783    -0.00000492776811    -0.00002386451804
   40      0.00000332749868    -0.00000928407331    -0.00002045826939
   41     -0.00005125745926    -0.00005185688010    -0.00006758156781
   42     -0.00000119876485     0.00000206823065    -0.00002306545077
   43      0.00000600765881     0.00002616018567    -0.00004084382398
   44     -0.00000121031210     0.00000203514283    -0.00002292663820
   45      0.00003243353341    -0.00003703695746    -0.00004755882403
   46     -0.00000008885004     0.00000028286417     0.00003676331534
   47     -0.00000047837782     0.00000037024322     0.00003696202081
   48      0.00000002860650    -0.00000011885472     0.00003728964054
   49     -0.00000005876227    -0.00000000725738     0.00003726128199
   50     -0.00000017887759     0.00000007022304     0.00003769530776
   51      0.00000003137411     0.00000010347748     0.00003727129906
   52      0.00000008856084     0.00000018813703     0.00003683452452
   53     -0.00000008785493     0.00000014021254     0.00003775814891
   54      0.00000015068332     0.00000004295372     0.00003763523678
 frms,max,avg= 2.6049493E-04 2.3931302E-03  -2.331E-09 -2.096E-09 -4.432E-10 h/b
 
 cartesian forces (eV/Angstrom) at end:
    1     -0.00000612015132     0.00001090591803     0.00021356141445
    2     -0.00002564834796    -0.00003732768243    -0.00003368069026
    3     -0.00001490264468    -0.00001155000611    -0.00004390298118
    4      0.00001430923592    -0.00000310734097    -0.00005609082769
    5      0.00001529616150     0.00004359204786    -0.00001290814174
    6      0.00001290397443    -0.00002409755459     0.00007900624699
    7      0.00001653264676    -0.00002567776181    -0.00005256242833
    8     -0.00000255583181     0.00000498842114    -0.00002215582866
    9     -0.00000630615533     0.00003111784088    -0.00001266858053
   10     -0.00498246484435    -0.00167804955921    -0.02138479044490
   11     -0.04346985893498     0.03083131009204    -0.05630951879625
   12     -0.00040101195648     0.00062641521979    -0.00159458939880
   13      0.00011838616466     0.00036010851308    -0.00155460252731
   14      0.00095987029379    -0.00249672955444    -0.00175360929289
   15     -0.00037241023452     0.00015621829304    -0.00162912112854
   16      0.01891501855316     0.02240974113691    -0.03905261940808
   17      0.00131710286361     0.00150540316782    -0.00269626028753
   18     -0.00124570198066    -0.00081063646654    -0.00079970678488
   19      0.03262826839716    -0.05699732813194     0.12305969126058
   20     -0.00152683193453     0.00277182849433     0.00506417144254
   21     -0.00202290519418     0.00435256396753     0.00619716498739
   22      0.00148497513171     0.00215581507919     0.00576467905689
   23     -0.00104689929255    -0.00068686159842     0.00548903610212
   24      0.00016105142854    -0.00027911901561     0.00190437104078
   25      0.00101307822875     0.00099622338271     0.00519773387765
   26      0.00016030903984    -0.00027588003559     0.00189986062432
   27     -0.00291888214143    -0.00087652436371     0.00605474176030
   28      0.00002034054774     0.00024278230333    -0.00225009276798
   29      0.00012113553860    -0.00009346067924    -0.00200484581232
   30     -0.00002042848483     0.00000809209101    -0.00191700410722
   31      0.00001156263007     0.00000469763174    -0.00190801399382
   32      0.00005704014835    -0.00000357353332    -0.00189168971867
   33     -0.00000988142665     0.00001882652562    -0.00192289754576
   34     -0.00014840482784    -0.00013561741307    -0.00212597658568
   35      0.00001530868034    -0.00003828982088    -0.00186229249275
   36     -0.00005575475264     0.00001616981637    -0.00192161202186
   37      0.00085625523550    -0.00148777994473    -0.01739091795108
   38      0.00043787153476     0.00310537820315    -0.00330527921323
   39      0.00058268334100    -0.00025339600293    -0.00122716275454
   40      0.00017110684729    -0.00047740620431    -0.00105200642149
   41     -0.00263576430914    -0.00266658776560    -0.00347518365053
   42     -0.00006164296165     0.00010635268711    -0.00118607306700
   43      0.00030892621083     0.00134521072071    -0.00210027369766
   44     -0.00006223674543     0.00010465124345    -0.00117893503823
   45      0.00166779920441    -0.00190451676673    -0.00244557285466
   46     -0.00000456885246     0.00001454545905     0.00189044552471
   47     -0.00002459917436     0.00001903867050     0.00190066337004
   48      0.00000147100543    -0.00000611175472     0.00191751025243
   49     -0.00000302167701    -0.00000037318954     0.00191605199718
   50     -0.00000919825498     0.00000361101349     0.00193837049770
   51      0.00000161332142     0.00000532102573     0.00191656709534
   52      0.00000455398096     0.00000967439403     0.00189410724774
   53     -0.00000451768175     0.00000721001785     0.00194160191915
   54      0.00000774844698     0.00000220876894     0.00193528152374
 frms,max,avg= 1.3395187E-02 1.2305969E-01  -1.198E-07 -1.078E-07 -2.279E-08 e/A
 length scales=  1.000000000000  1.000000000000  1.000000000000 bohr
              =  0.529177208590  0.529177208590  0.529177208590 angstroms
 prteigrs : about to open file abo_EIG
 Fermi (or HOMO) energy (hartree) =   0.24624   Average Vxc (hartree)=  -0.37287
 Eigenvalues (hartree) for nkpt=   5  k points:
 kpt#   1, nband=280, wtk=  0.11111, kpt=  0.0000  0.0000  0.0000 (reduced coord)
  -2.00355   -2.00346   -2.00346   -2.00346   -2.00345   -2.00345   -2.00344   -2.00339
  -2.00337   -2.00337   -2.00336   -2.00336   -2.00335   -2.00335   -2.00326   -2.00326
  -2.00325   -2.00324   -1.05718   -1.05718   -1.05718   -1.05715   -1.05707   -1.05707
  -1.05706   -1.05706   -1.05706   -1.05705   -1.05698   -1.05698   -1.05697   -1.05697
  -1.05697   -1.05695   -1.05572   -1.05572   -1.05555   -1.05555   -1.05416   -1.05395
  -1.05240   -1.05240   -1.05239   -1.05239   -1.05239   -1.05239   -1.05218   -1.05217
  -1.05217   -1.05216   -1.05216   -1.05216   -1.05109   -1.05108   -1.05108   -1.05107
  -1.04915   -1.04914   -1.04913   -1.04913   -1.04913   -1.04913   -1.04891   -1.04889
  -1.04889   -1.04889   -1.04888   -1.04888   -1.04635   -1.04634   -1.04631   -1.04631
  -0.28577   -0.28314   -0.23918   -0.23864   -0.23863   -0.23863   -0.23862   -0.23862
  -0.23848   -0.23665   -0.23665   -0.23664   -0.23664   -0.23664   -0.23645   -0.23460
  -0.21930   -0.21929   -0.21928   -0.21928   -0.21928   -0.21922   -0.21687   -0.21686
  -0.21685   -0.21685   -0.21685   -0.21678   -0.20820   -0.20820   -0.20819   -0.20807
  -0.20484   -0.20484   -0.20483   -0.20476    0.01933    0.03359    0.03361    0.03465
   0.03524    0.03527    0.03767    0.03767    0.03768    0.03771    0.03773    0.03780
   0.04280    0.04281    0.04281    0.04285    0.04288    0.04293    0.06446    0.06447
   0.06447    0.06458    0.07620    0.07621    0.07622    0.07624    0.07626    0.07627
   0.08195    0.08195    0.08196    0.08198    0.08199    0.08202    0.08203    0.08211
   0.08476    0.08478    0.08479    0.08482    0.08482    0.08483    0.08488    0.08497
   0.09345    0.09346    0.09347    0.09350    0.09351    0.09356    0.10121    0.10121
   0.10122    0.10130    0.12612    0.12617    0.12617    0.12618    0.12618    0.12619
   0.12619    0.12620    0.12625    0.12633    0.12678    0.12678    0.12678    0.12679
   0.12687    0.12699    0.13481    0.13482    0.13497    0.13499    0.14801    0.15385
   0.15389    0.15390    0.15390    0.16746    0.16757    0.16758    0.16760    0.16760
   0.16761    0.17492    0.17495    0.17519    0.17526    0.17812    0.17820    0.17821
   0.17822    0.17822    0.17823    0.17957    0.17957    0.17957    0.17957    0.17966
   0.17967    0.18059    0.18059    0.18059    0.18060    0.18072    0.18072    0.19072
   0.19450    0.19455    0.19456    0.19456    0.19456    0.19460    0.19820    0.19824
   0.19826    0.19826    0.19826    0.19830    0.22140    0.22900    0.22901    0.23101
   0.23103    0.24624    0.29069    0.29069    0.29074    0.29076    0.30945    0.30947
   0.30949    0.30953    0.30953    0.30954    0.31036    0.31038    0.31041    0.31042
   0.31043    0.31044    0.31198    0.31199    0.31203    0.31203    0.31205    0.31205
   0.32506    0.32509    0.32511    0.32514    0.32515    0.32516    0.33135    0.33142
   0.33156    0.33163    0.33577    0.33581    0.34012    0.34015    0.34168    0.34170
   0.34733    0.34740    0.34742    0.34745    0.34746    0.34747    0.35173    0.35177
 prteigrs : prtvol=0 or 1, do not print more k-points.
 

--- !EnergyTerms
iteration_state     : {dtset: 1, }
comment             : Components of total free energy in Hartree
kinetic             :  5.36507133680089E+02
hartree             :  6.23883021257331E+02
xc                  : -2.99819217937352E+02
Ewald energy        : -9.09758670686572E+02
psp_core            :  3.92430686932514E+01
local_psp           : -1.86293989442720E+03
non_local_psp       :  2.10176095175425E+02
total_energy        : -1.66270846424503E+03
total_energy_eV     : -4.52445982678425E+04
band_energy         : -1.70327291899103E+02
...

 
 Cartesian components of stress tensor (hartree/bohr^3)
  sigma(1 1)=  6.94088882E-04  sigma(3 2)= -3.66479093E-07
  sigma(2 2)=  6.93937128E-04  sigma(3 1)=  2.09227464E-07
  sigma(3 3)=  6.59104025E-04  sigma(2 1)= -4.35320301E-08
 
-Cartesian components of stress tensor (GPa)         [Pressure= -2.0076E+01 GPa]
- sigma(1 1)=  2.04207965E+01  sigma(3 2)= -1.07821854E-02
- sigma(2 2)=  2.04163317E+01  sigma(3 1)=  6.15568347E-03
- sigma(3 3)=  1.93915066E+01  sigma(2 1)= -1.28075633E-03
 
== END DATASET(S) ==============================================================
================================================================================
  
 -outvars: echo values of variables after computation  --------
-          iomode           1
            acell      1.0000000000E+00  1.0000000000E+00  1.0000000000E+00 Bohr
              amu      9.59400000E+01  3.20660000E+01
           bandpp          14
          chkprim           0
     densfor_pred           6
           diemac      1.20000000E+01
             ecut      2.00000000E+01 Hartree
           etotal     -1.6627084642E+03
            fcart     -1.1901800392E-07  2.1208635657E-07  4.1531086306E-06
                      -4.9878099719E-07 -7.2590791024E-07 -6.5498519830E-07
                      -2.8981032185E-07 -2.2461187647E-07 -8.5377712314E-07
                       2.7827035770E-07 -6.0428166037E-08 -1.0907930217E-06
                       2.9746300625E-07  8.4773043234E-07 -2.5102341168E-07
                       2.5094237049E-07 -4.6862286516E-07  1.5364270138E-06
                       3.2150881816E-07 -4.9935300562E-07 -1.0221765730E-06
                      -4.9703019588E-08  9.7009354086E-08 -4.3086230481E-07
                      -1.2263520630E-07  6.0514570891E-07 -2.4636468758E-07
                      -9.6893522645E-05 -3.2632871088E-05 -4.1586799746E-04
                      -8.4535423584E-04  5.9957357169E-04 -1.0950458869E-03
                      -7.7984415946E-06  1.2181837540E-05 -3.1009829241E-05
                       2.3022445486E-06  7.0029961989E-06 -3.0232208332E-05
                       1.8666506830E-05 -4.8553663534E-05 -3.4102274083E-05
                      -7.2422266125E-06  3.0379623715E-06 -3.1681364524E-05
                       3.6783857704E-04  4.3580011664E-04 -7.5945259649E-04
                       2.5613574832E-05  2.9275433041E-05 -5.2433918831E-05
                      -2.4225048614E-05 -1.5764370704E-05 -1.5551822219E-05
                       6.3451884992E-04 -1.1084216500E-03  2.3931301784E-03
                      -2.9692156241E-05  5.3903486602E-05  9.8482463133E-05
                      -3.9339246008E-05  8.4643899862E-05  1.2051568145E-04
                       2.8878170955E-05  4.1923931973E-05  1.1210516846E-04
                      -2.0358951539E-05 -1.3357332549E-05  1.0674476599E-04
                       3.1319519004E-06 -5.4280011007E-06  3.7034123537E-05
                       1.9701236509E-05  1.9373461912E-05  1.0107983918E-04
                       3.1175147375E-06 -5.3650129626E-06  3.6946409894E-05
                      -5.6763224971E-05 -1.7045686410E-05  1.1774599043E-04
                       3.9556070837E-07  4.7213644934E-06 -4.3757341271E-05
                       2.3557113635E-06 -1.8175209907E-06 -3.8988046917E-05
                      -3.9727081258E-07  1.5736612871E-07 -3.7279797585E-05
                       2.2485737356E-07  9.1354400223E-08 -3.7104967700E-05
                       1.1092543708E-06 -6.9494164498E-08 -3.6787511065E-05
                      -1.9216316966E-07  3.6611766335E-07 -3.7394406727E-05
                      -2.8860146526E-06 -2.6373390069E-06 -4.1343665612E-05
                       2.9770645879E-07 -7.4461852558E-07 -3.6215825993E-05
                      -1.0842574019E-06  3.1445288982E-07 -3.7369407265E-05
                       1.6651514590E-05 -2.8932715888E-05 -3.3819953676E-04
                       8.5152463276E-06  6.0389996246E-05 -6.4277452285E-05
                       1.1331387829E-05 -4.9277681057E-06 -2.3864518037E-05
                       3.3274986779E-06 -9.2840733077E-06 -2.0458269392E-05
                      -5.1257459260E-05 -5.1856880103E-05 -6.7581567809E-05
                      -1.1987648458E-06  2.0682306485E-06 -2.3065450769E-05
                       6.0076588074E-06  2.6160185671E-05 -4.0843823979E-05
                      -1.2103121028E-06  2.0351428346E-06 -2.2926638199E-05
                       3.2433533407E-05 -3.7036957456E-05 -4.7558824031E-05
                      -8.8850041672E-08  2.8286416662E-07  3.6763315343E-05
                      -4.7837781751E-07  3.7024322481E-07  3.6962020815E-05
                       2.8606503579E-08 -1.1885471611E-07  3.7289640543E-05
                      -5.8762267038E-08 -7.2573817116E-09  3.7261281991E-05
                      -1.7887759482E-07  7.0223037866E-08  3.7695307760E-05
                       3.1374109169E-08  1.0347748409E-07  3.7271299056E-05
                       8.8560837090E-08  1.8813702590E-07  3.6834524524E-05
                      -8.7854929779E-08  1.4021253536E-07  3.7758148908E-05
                       1.5068331564E-07  4.2953720617E-08  3.7635236776E-05
-          fftalg         401
           istwfk        2    0    0    0    0
              ixc          11
              kpt      0.00000000E+00  0.00000000E+00  0.00000000E+00
                       3.33333333E-01  0.00000000E+00  0.00000000E+00
                       0.00000000E+00  3.33333333E-01  0.00000000E+00
                       3.33333333E-01  3.33333333E-01  0.00000000E+00
                      -3.33333333E-01  3.33333333E-01  0.00000000E+00
         kptrlatt        3    0    0      0    3    0      0    0    1
          kptrlen      2.56852226E+01
P           mkmem           1
            natom          54
            nband         280
            ngfft          75      75     120
             nkpt           5
    nblock_lobpcg           4
-          npband           5
-           npfft           5
-        np_spkpt           5
            nstep         100
             nsym           1
           ntypat           2
              occ      2.000000  2.000000  2.000000  2.000000  2.000000  2.000000
                       2.000000  2.000000  2.000000  2.000000  2.000000  2.000000
                       2.000000  2.000000  2.000000  2.000000  2.000000  2.000000
                       2.000000  2.000000  2.000000  2.000000  2.000000  2.000000
                       2.000000  2.000000  2.000000  2.000000  2.000000  2.000000
                       2.000000  2.000000  2.000000  2.000000  2.000000  2.000000
                       2.000000  2.000000  2.000000  2.000000  2.000000  2.000000
                       2.000000  2.000000  2.000000  2.000000  2.000000  2.000000
                       2.000000  2.000000  2.000000  2.000000  2.000000  2.000000
                       2.000000  2.000000  2.000000  2.000000  2.000000  2.000000
                       2.000000  2.000000  2.000000  2.000000  2.000000  2.000000
                       2.000000  2.000000  2.000000  2.000000  2.000000  2.000000
                       2.000000  2.000000  2.000000  2.000000  2.000000  2.000000
                       2.000000  2.000000  2.000000  2.000000  2.000000  2.000000
                       2.000000  2.000000  2.000000  2.000000  2.000000  2.000000
                       2.000000  2.000000  2.000000  2.000000  2.000000  2.000000
                       2.000000  2.000000  2.000000  2.000000  2.000000  2.000000
                       2.000000  2.000000  2.000000  2.000000  2.000000  2.000000
                       2.000000  2.000000  2.000000  2.000000  2.000000  2.000000
                       2.000000  2.000000  2.000000  2.000000  2.000000  2.000000
                       2.000000  2.000000  2.000000  2.000000  2.000000  2.000000
                       2.000000  2.000000  2.000000  2.000000  2.000000  2.000000
                       2.000000  2.000000  2.000000  2.000000  2.000000  2.000000
                       2.000000  2.000000  2.000000  2.000000  2.000000  2.000000
                       2.000000  2.000000  2.000000  2.000000  2.000000  2.000000
                       2.000000  2.000000  2.000000  2.000000  2.000000  2.000000
                       2.000000  2.000000  2.000000  2.000000  2.000000  2.000000
                       2.000000  2.000000  2.000000  2.000000  2.000000  2.000000
                       2.000000  2.000000  2.000000  2.000000  2.000000  2.000000
                       2.000000  2.000000  2.000000  2.000000  2.000000  2.000000
                       2.000000  2.000000  2.000000  2.000000  2.000000  2.000000
                       2.000000  2.000000  2.000000  2.000000  2.000000  2.000000
                       2.000000  2.000000  2.000000  2.000000  2.000000  2.000000
                       2.000000  2.000000  2.000000  2.000000  2.000000  2.000000
                       2.000000  2.000000  2.000000  2.000000  2.000000  2.000000
                       2.000000  2.000000  2.000000  2.000000  2.000000  2.000000
                       2.000000  2.000000  2.000000  2.000000  2.000000  2.000000
                       2.000000  2.000000  2.000000  2.000000  2.000000  2.000000
                       2.000000  2.000000  2.000000  2.000000  2.000000  2.000000
                       0.000000  0.000000  0.000000  0.000000  0.000000  0.000000
                       0.000000  0.000000  0.000000  0.000000  0.000000  0.000000
                       0.000000  0.000000  0.000000  0.000000  0.000000  0.000000
                       0.000000  0.000000  0.000000  0.000000  0.000000  0.000000
                       0.000000  0.000000  0.000000  0.000000  0.000000  0.000000
                       0.000000  0.000000  0.000000  0.000000  0.000000  0.000000
                       0.000000  0.000000  0.000000  0.000000  0.000000  0.000000
                       0.000000  0.000000  0.000000  0.000000
           ortalg          -2
        paral_kgb           1
           prtden           0
        prtposcar           1
            prtwf           0
            rprim      9.0560300050E+00 -1.5685504084E+01  0.0000000000E+00
                       9.0560300050E+00  1.5685504084E+01  0.0000000000E+00
                       0.0000000000E+00  0.0000000000E+00  2.5685222633E+01
          spgroup           1
           strten      6.9408888229E-04  6.9393712802E-04  6.5910402499E-04
                      -3.6647909288E-07  2.0922746357E-07 -4.3532030128E-08
           toldfe      1.00000000E-09 Hartree
           tolsym      1.00000000E-08
            typat      1  1  1  1  1  1  1  1  1  1  1  1  1  1  1  1  1  1  2  2
                       2  2  2  2  2  2  2  2  2  2  2  2  2  2  2  2  2  2  2  2
                       2  2  2  2  2  2  2  2  2  2  2  2  2  2
         wfoptalg         114
              wtk        0.11111    0.22222    0.22222    0.22222    0.22222
           xangst      1.5974148930E+00 -9.2226791849E-01  3.3980086037E+00
                       3.1948297860E+00 -3.6890716739E+00  3.3980086037E+00
                       4.7922446790E+00 -6.4558754293E+00  3.3980086037E+00
                       3.1948297860E+00  1.8445358369E+00  3.3980086037E+00
                       4.7922446790E+00 -9.2226791849E-01  3.3980086037E+00
                       6.3896595720E+00 -3.6890716739E+00  3.3980086037E+00
                       4.7922446790E+00  4.6113395923E+00  3.3980086037E+00
                       6.3896595720E+00  1.8445358369E+00  3.3980086037E+00
                       7.9870744650E+00 -9.2226791849E-01  3.3980086037E+00
                       1.5974148930E+00  9.2226791849E-01  1.0194025811E+01
                       3.1948297860E+00 -1.8445358369E+00  1.0194025811E+01
                       4.7922446790E+00 -4.6113395923E+00  1.0194025811E+01
                       3.1948297860E+00  3.6890716739E+00  1.0194025811E+01
                       4.7922446790E+00  9.2226791849E-01  1.0194025811E+01
                       6.3896595720E+00 -1.8445358369E+00  1.0194025811E+01
                       4.7922446790E+00  6.4558754293E+00  1.0194025811E+01
                       6.3896595720E+00  3.6890716739E+00  1.0194025811E+01
                       7.9870744650E+00  9.2226791849E-01  1.0194025811E+01
                       1.5943653171E+00 -9.1698589816E-01  8.6254358568E+00
                       3.1948297860E+00 -3.6890716739E+00  8.6340852357E+00
                       4.7922446790E+00 -6.4558754293E+00  8.6340852357E+00
                       3.1948297860E+00  1.8445358369E+00  8.6340852357E+00
                       4.7922446790E+00 -9.2226791849E-01  8.6340852357E+00
                       6.3896595720E+00 -3.6890716739E+00  8.6340852357E+00
                       4.7922446790E+00  4.6113395923E+00  8.6340852357E+00
                       6.3896595720E+00  1.8445358369E+00  8.6340852357E+00
                       7.9870744650E+00 -9.2226791849E-01  8.6340852357E+00
                       1.5974148930E+00  9.2226791849E-01  4.9579491792E+00
                       3.1948297860E+00 -1.8445358369E+00  4.9579491792E+00
                       4.7922446790E+00 -4.6113395923E+00  4.9579491792E+00
                       3.1948297860E+00  3.6890716739E+00  4.9579491792E+00
                       4.7922446790E+00  9.2226791849E-01  4.9579491792E+00
                       6.3896595720E+00 -1.8445358369E+00  4.9579491792E+00
                       4.7922446790E+00  6.4558754293E+00  4.9579491792E+00
                       6.3896595720E+00  3.6890716739E+00  4.9579491792E+00
                       7.9870744650E+00  9.2226791849E-01  4.9579491792E+00
                       1.5974148930E+00 -9.2226791849E-01  1.1753966387E+01
                       3.1948297860E+00 -3.6890716739E+00  1.1753966387E+01
                       4.7922446790E+00 -6.4558754293E+00  1.1753966387E+01
                       3.1948297860E+00  1.8445358369E+00  1.1753966387E+01
                       4.7922446790E+00 -9.2226791849E-01  1.1753966387E+01
                       6.3896595720E+00 -3.6890716739E+00  1.1753966387E+01
                       4.7922446790E+00  4.6113395923E+00  1.1753966387E+01
                       6.3896595720E+00  1.8445358369E+00  1.1753966387E+01
                       7.9870744650E+00 -9.2226791849E-01  1.1753966387E+01
                       1.5974148930E+00  9.2226791849E-01  1.8380680282E+00
                       3.1948297860E+00 -1.8445358369E+00  1.8380680282E+00
                       4.7922446790E+00 -4.6113395923E+00  1.8380680282E+00
                       3.1948297860E+00  3.6890716739E+00  1.8380680282E+00
                       4.7922446790E+00  9.2226791849E-01  1.8380680282E+00
                       6.3896595720E+00 -1.8445358369E+00  1.8380680282E+00
                       4.7922446790E+00  6.4558754293E+00  1.8380680282E+00
                       6.3896595720E+00  3.6890716739E+00  1.8380680282E+00
                       7.9870744650E+00  9.2226791849E-01  1.8380680282E+00
            xcart      3.0186766683E+00 -1.7428337871E+00  6.4213056582E+00
                       6.0373533367E+00 -6.9713351483E+00  6.4213056582E+00
                       9.0560300050E+00 -1.2199836509E+01  6.4213056582E+00
                       6.0373533367E+00  3.4856675741E+00  6.4213056582E+00
                       9.0560300050E+00 -1.7428337871E+00  6.4213056582E+00
                       1.2074706673E+01 -6.9713351483E+00  6.4213056582E+00
                       9.0560300050E+00  8.7141689353E+00  6.4213056582E+00
                       1.2074706673E+01  3.4856675741E+00  6.4213056582E+00
                       1.5093383342E+01 -1.7428337871E+00  6.4213056582E+00
                       3.0186766683E+00  1.7428337871E+00  1.9263916975E+01
                       6.0373533367E+00 -3.4856675741E+00  1.9263916975E+01
                       9.0560300050E+00 -8.7141689353E+00  1.9263916975E+01
                       6.0373533367E+00  6.9713351483E+00  1.9263916975E+01
                       9.0560300050E+00  1.7428337871E+00  1.9263916975E+01
                       1.2074706673E+01 -3.4856675741E+00  1.9263916975E+01
                       9.0560300050E+00  1.2199836509E+01  1.9263916975E+01
                       1.2074706673E+01  6.9713351483E+00  1.9263916975E+01
                       1.5093383342E+01  1.7428337871E+00  1.9263916975E+01
                       3.0129138052E+00 -1.7328522152E+00  1.6299711546E+01
                       6.0373533367E+00 -6.9713351483E+00  1.6316056503E+01
                       9.0560300050E+00 -1.2199836509E+01  1.6316056503E+01
                       6.0373533367E+00  3.4856675741E+00  1.6316056503E+01
                       9.0560300050E+00 -1.7428337871E+00  1.6316056503E+01
                       1.2074706673E+01 -6.9713351483E+00  1.6316056503E+01
                       9.0560300050E+00  8.7141689353E+00  1.6316056503E+01
                       1.2074706673E+01  3.4856675741E+00  1.6316056503E+01
                       1.5093383342E+01 -1.7428337871E+00  1.6316056503E+01
                       3.0186766683E+00  1.7428337871E+00  9.3691661295E+00
                       6.0373533367E+00 -3.4856675741E+00  9.3691661295E+00
                       9.0560300050E+00 -8.7141689353E+00  9.3691661295E+00
                       6.0373533367E+00  6.9713351483E+00  9.3691661295E+00
                       9.0560300050E+00  1.7428337871E+00  9.3691661295E+00
                       1.2074706673E+01 -3.4856675741E+00  9.3691661295E+00
                       9.0560300050E+00  1.2199836509E+01  9.3691661295E+00
                       1.2074706673E+01  6.9713351483E+00  9.3691661295E+00
                       1.5093383342E+01  1.7428337871E+00  9.3691661295E+00
                       3.0186766683E+00 -1.7428337871E+00  2.2211777446E+01
                       6.0373533367E+00 -6.9713351483E+00  2.2211777446E+01
                       9.0560300050E+00 -1.2199836509E+01  2.2211777446E+01
                       6.0373533367E+00  3.4856675741E+00  2.2211777446E+01
                       9.0560300050E+00 -1.7428337871E+00  2.2211777446E+01
                       1.2074706673E+01 -6.9713351483E+00  2.2211777446E+01
                       9.0560300050E+00  8.7141689353E+00  2.2211777446E+01
                       1.2074706673E+01  3.4856675741E+00  2.2211777446E+01
                       1.5093383342E+01 -1.7428337871E+00  2.2211777446E+01
                       3.0186766683E+00  1.7428337871E+00  3.4734451870E+00
                       6.0373533367E+00 -3.4856675741E+00  3.4734451870E+00
                       9.0560300050E+00 -8.7141689353E+00  3.4734451870E+00
                       6.0373533367E+00  6.9713351483E+00  3.4734451870E+00
                       9.0560300050E+00  1.7428337871E+00  3.4734451870E+00
                       1.2074706673E+01 -3.4856675741E+00  3.4734451870E+00
                       9.0560300050E+00  1.2199836509E+01  3.4734451870E+00
                       1.2074706673E+01  6.9713351483E+00  3.4734451870E+00
                       1.5093383342E+01  1.7428337871E+00  3.4734451870E+00
             xred      2.2222222222E-01  1.1111111111E-01  2.5000000000E-01
                       5.5555555556E-01  1.1111111111E-01  2.5000000000E-01
                       8.8888888889E-01  1.1111111111E-01  2.5000000000E-01
                       2.2222222222E-01  4.4444444444E-01  2.5000000000E-01
                       5.5555555556E-01  4.4444444444E-01  2.5000000000E-01
                       8.8888888889E-01  4.4444444444E-01  2.5000000000E-01
                       2.2222222222E-01  7.7777777778E-01  2.5000000000E-01
                       5.5555555556E-01  7.7777777778E-01  2.5000000000E-01
                       8.8888888889E-01  7.7777777778E-01  2.5000000000E-01
                       1.1111111111E-01  2.2222222222E-01  7.5000000000E-01
                       4.4444444444E-01  2.2222222222E-01  7.5000000000E-01
                       7.7777777778E-01  2.2222222222E-01  7.5000000000E-01
                       1.1111111111E-01  5.5555555556E-01  7.5000000000E-01
                       4.4444444444E-01  5.5555555556E-01  7.5000000000E-01
                       7.7777777778E-01  5.5555555556E-01  7.5000000000E-01
                       1.1111111111E-01  8.8888888889E-01  7.5000000000E-01
                       4.4444444444E-01  8.8888888889E-01  7.5000000000E-01
                       7.7777777778E-01  8.8888888889E-01  7.5000000000E-01
                       2.2158586576E-01  1.1111111111E-01  6.3459491004E-01
                       5.5555555556E-01  1.1111111111E-01  6.3523126650E-01
                       8.8888888889E-01  1.1111111111E-01  6.3523126650E-01
                       2.2222222222E-01  4.4444444444E-01  6.3523126650E-01
                       5.5555555556E-01  4.4444444444E-01  6.3523126650E-01
                       8.8888888889E-01  4.4444444444E-01  6.3523126650E-01
                       2.2222222222E-01  7.7777777778E-01  6.3523126650E-01
                       5.5555555556E-01  7.7777777778E-01  6.3523126650E-01
                       8.8888888889E-01  7.7777777778E-01  6.3523126650E-01
                       1.1111111111E-01  2.2222222222E-01  3.6476873350E-01
                       4.4444444444E-01  2.2222222222E-01  3.6476873350E-01
                       7.7777777778E-01  2.2222222222E-01  3.6476873350E-01
                       1.1111111111E-01  5.5555555556E-01  3.6476873350E-01
                       4.4444444444E-01  5.5555555556E-01  3.6476873350E-01
                       7.7777777778E-01  5.5555555556E-01  3.6476873350E-01
                       1.1111111111E-01  8.8888888889E-01  3.6476873350E-01
                       4.4444444444E-01  8.8888888889E-01  3.6476873350E-01
                       7.7777777778E-01  8.8888888889E-01  3.6476873350E-01
                       2.2222222222E-01  1.1111111111E-01  8.6476873350E-01
                       5.5555555556E-01  1.1111111111E-01  8.6476873350E-01
                       8.8888888889E-01  1.1111111111E-01  8.6476873350E-01
                       2.2222222222E-01  4.4444444444E-01  8.6476873350E-01
                       5.5555555556E-01  4.4444444444E-01  8.6476873350E-01
                       8.8888888889E-01  4.4444444444E-01  8.6476873350E-01
                       2.2222222222E-01  7.7777777778E-01  8.6476873350E-01
                       5.5555555556E-01  7.7777777778E-01  8.6476873350E-01
                       8.8888888889E-01  7.7777777778E-01  8.6476873350E-01
                       1.1111111111E-01  2.2222222222E-01  1.3523126650E-01
                       4.4444444444E-01  2.2222222222E-01  1.3523126650E-01
                       7.7777777778E-01  2.2222222222E-01  1.3523126650E-01
                       1.1111111111E-01  5.5555555556E-01  1.3523126650E-01
                       4.4444444444E-01  5.5555555556E-01  1.3523126650E-01
                       7.7777777778E-01  5.5555555556E-01  1.3523126650E-01
                       1.1111111111E-01  8.8888888889E-01  1.3523126650E-01
                       4.4444444444E-01  8.8888888889E-01  1.3523126650E-01
                       7.7777777778E-01  8.8888888889E-01  1.3523126650E-01
            znucl       42.00000   16.00000
 
================================================================================


- Timing analysis has been suppressed with timopt=0



================================================================================

 Suggested references for the acknowledgment of ABINIT usage.

 The users of ABINIT have little formal obligations with respect to the ABINIT group
 (those specified in the GNU General Public License, http://www.gnu.org/copyleft/gpl.txt).
 However, it is common practice in the scientific literature,
 to acknowledge the efforts of people that have made the research possible.
 In this spirit, please find below suggested citations of work written by ABINIT developers,
 corresponding to implementations inside of ABINIT that you have used in the present run.
 Note also that it will be of great value to readers of publications presenting these results,
 to read papers enabling them to understand the theoretical formalism and details
 of the ABINIT implementation.
 For information on why they are suggested, see also https://docs.abinit.org/theory/acknowledgments.
-
- [1] Large scale ab initio calculations based on three levels of parallelization
- F. Bottin, S. Leroux, A. Knyazev, G. Zerah, Comput. Mat. Science 42, 329, (2008).
- Comment: in case LOBPCG algorithm is used (wfoptalg=4/14/114).
- Strong suggestion to cite this paper in your publications.
- This paper is also available at http://www.arxiv.org/abs/0707.3405
- DOI and bibtex: see https://docs.abinit.org/theory/bibliography/#bottin2008
-
- [2] The Abinit project: Impact, environment and recent developments.
- Computer Phys. Comm. 248, 107042 (2020).
- X.Gonze, B. Amadon, G. Antonius, F.Arnardi, L.Baguet, J.-M.Beuken,
- J.Bieder, F.Bottin, J.Bouchet, E.Bousquet, N.Brouwer, F.Bruneval,
- G.Brunin, T.Cavignac, J.-B. Charraud, Wei Chen, M.Cote, S.Cottenier,
- J.Denier, G.Geneste, Ph.Ghosez, M.Giantomassi, Y.Gillet, O.Gingras,
- D.R.Hamann, G.Hautier, Xu He, N.Helbig, N.Holzwarth, Y.Jia, F.Jollet,
- W.Lafargue-Dit-Hauret, K.Lejaeghere, M.A.L.Marques, A.Martin, C.Martins,
- H.P.C. Miranda, F.Naccarato, K. Persson, G.Petretto, V.Planes, Y.Pouillon,
- S.Prokhorenko, F.Ricci, G.-M.Rignanese, A.H.Romero, M.M.Schmitt, M.Torrent,
- M.J.van Setten, B.Van Troeye, M.J.Verstraete, G.Zerah and J.W.Zwanzig
- Comment: the fifth generic paper describing the ABINIT project.
- Note that a version of this paper, that is not formatted for Computer Phys. Comm. 
- is available at https://www.abinit.org/sites/default/files/ABINIT20.pdf .
- The licence allows the authors to put it on the Web.
- DOI and bibtex: see https://docs.abinit.org/theory/bibliography/#gonze2020
-
- [3] Optimized norm-conserving Vanderbilt pseudopotentials.
- D.R. Hamann, Phys. Rev. B 88, 085117 (2013).
- Comment: Some pseudopotential generated using the ONCVPSP code were used.
- DOI and bibtex: see https://docs.abinit.org/theory/bibliography/#hamann2013
-
- [4] ABINIT: Overview, and focus on selected capabilities
- J. Chem. Phys. 152, 124102 (2020).
- A. Romero, D.C. Allan, B. Amadon, G. Antonius, T. Applencourt, L.Baguet,
- J.Bieder, F.Bottin, J.Bouchet, E.Bousquet, F.Bruneval,
- G.Brunin, D.Caliste, M.Cote,
- J.Denier, C. Dreyer, Ph.Ghosez, M.Giantomassi, Y.Gillet, O.Gingras,
- D.R.Hamann, G.Hautier, F.Jollet, G. Jomard,
- A.Martin, 
- H.P.C. Miranda, F.Naccarato, G.Petretto, N.A. Pike, V.Planes,
- S.Prokhorenko, T. Rangel, F.Ricci, G.-M.Rignanese, M.Royo, M.Stengel, M.Torrent,
- M.J.van Setten, B.Van Troeye, M.J.Verstraete, J.Wiktor, J.W.Zwanziger, and X.Gonze.
- Comment: a global overview of ABINIT, with focus on selected capabilities .
- Note that a version of this paper, that is not formatted for J. Chem. Phys 
- is available at https://www.abinit.org/sites/default/files/ABINIT20_JPC.pdf .
- The licence allows the authors to put it on the Web.
- DOI and bibtex: see https://docs.abinit.org/theory/bibliography/#romero2020
-
- [5] Recent developments in the ABINIT software package.
- Computer Phys. Comm. 205, 106 (2016).
- X.Gonze, F.Jollet, F.Abreu Araujo, D.Adams, B.Amadon, T.Applencourt,
- C.Audouze, J.-M.Beuken, J.Bieder, A.Bokhanchuk, E.Bousquet, F.Bruneval
- D.Caliste, M.Cote, F.Dahm, F.Da Pieve, M.Delaveau, M.Di Gennaro,
- B.Dorado, C.Espejo, G.Geneste, L.Genovese, A.Gerossier, M.Giantomassi,
- Y.Gillet, D.R.Hamann, L.He, G.Jomard, J.Laflamme Janssen, S.Le Roux,
- A.Levitt, A.Lherbier, F.Liu, I.Lukacevic, A.Martin, C.Martins,
- M.J.T.Oliveira, S.Ponce, Y.Pouillon, T.Rangel, G.-M.Rignanese,
- A.H.Romero, B.Rousseau, O.Rubel, A.A.Shukri, M.Stankovski, M.Torrent,
- M.J.Van Setten, B.Van Troeye, M.J.Verstraete, D.Waroquier, J.Wiktor,
- B.Xu, A.Zhou, J.W.Zwanziger.
- Comment: the fourth generic paper describing the ABINIT project.
- Note that a version of this paper, that is not formatted for Computer Phys. Comm. 
- is available at https://www.abinit.org/sites/default/files/ABINIT16.pdf .
- The licence allows the authors to put it on the Web.
- DOI and bibtex: see https://docs.abinit.org/theory/bibliography/#gonze2016
-
- Proc.   0 individual time (sec): cpu=        264.6  wall=        268.1
 
================================================================================
 
 Calculation completed.
.Delivered   0 WARNINGs and   0 COMMENTs to log file.
+Overall time at end (sec) : cpu=      33172.5  wall=      33508.5
