
.Version 10.0.9 of ABINIT, released Sep 2024.
.(MPI version, prepared for a x86_64_linux_intel2021.6 computer) 

.Copyright (C) 1998-2024 ABINIT group . 
 ABINIT comes with ABSOLUTELY NO WARRANTY.
 It is free software, and you are welcome to redistribute it
 under certain conditions (GNU General Public License,
 see ~abinit/COPYING or http://www.gnu.org/copyleft/gpl.txt).

 ABINIT is a project of the Universite Catholique de Louvain,
 Corning Inc. and other collaborators, see ~abinit/doc/developers/contributors.txt .
 Please read https://docs.abinit.org/theory/acknowledgments for suggested
 acknowledgments of the ABINIT effort.
 For more information, see https://www.abinit.org .

.Starting date : Mon  8 Dec 2025.
- ( at 16h20 )
  
- input  file    -> ab.in
- output file    -> ab.abo
- root for input  files -> abi
- root for output files -> abo
 
 Symmetries : space group P1 (#  1); Bravais aP (primitive triclinic)
================================================================================
 Values of the parameters that define the memory need of the present run
     intxc =       0    ionmov =       0      iscf =       7    lmnmax =       6
     lnmax =       6     mgfft =     120  mpssoang =       3    mqgrid =    5171
     natom =      54  nloc_mem =       1    nspden =       1   nspinor =       1
    nsppol =       1      nsym =       1    n1xccc =    2501    ntypat =       2
    occopt =       1   xclevel =       2
-    mband =         280        mffmem =           1         mkmem =           1
       mpw =        1253          nfft =      135000          nkpt =           5
================================================================================
P This job should need less than                      71.205 Mbytes of memory.
  Rough estimation (10% accuracy) of disk space for files :
_ WF disk file :    133.837 Mbytes ; DEN or POT disk file :      1.032 Mbytes.
================================================================================
 
--------------------------------------------------------------------------------
------------- Echo of variables that govern the present computation ------------
--------------------------------------------------------------------------------
-
- outvars: echo of selected default values                                      
-   iomode0 =  0 , fftalg0 =512 , wfoptalg0 =  0
-
- outvars: echo of global parameters not present in the input file              
-  max_nthreads =    0
-
 -outvars: echo values of preprocessed input variables --------
-          iomode           1
            acell      1.0000000000E+00  1.0000000000E+00  1.0000000000E+00 Bohr
              amu      9.59400000E+01  3.20660000E+01
           bandpp          14
          chkprim           0
     densfor_pred           6
           diemac      1.20000000E+01
             ecut      2.00000000E+01 Hartree
-          fftalg         401
           istwfk        2    0    0    0    0
              ixc          11
              kpt      0.00000000E+00  0.00000000E+00  0.00000000E+00
                       3.33333333E-01  0.00000000E+00  0.00000000E+00
                       0.00000000E+00  3.33333333E-01  0.00000000E+00
                       3.33333333E-01  3.33333333E-01  0.00000000E+00
                      -3.33333333E-01  3.33333333E-01  0.00000000E+00
         kptrlatt        3    0    0      0    3    0      0    0    1
          kptrlen      2.56852226E+01
P           mkmem           1
            natom          54
            nband         280
            ngfft          75      75     120
             nkpt           5
    nblock_lobpcg           4
-          npband           5
-           npfft           5
-        np_spkpt           5
            nstep         100
             nsym           1
           ntypat           2
              occ      2.000000  2.000000  2.000000  2.000000  2.000000  2.000000
                       2.000000  2.000000  2.000000  2.000000  2.000000  2.000000
                       2.000000  2.000000  2.000000  2.000000  2.000000  2.000000
                       2.000000  2.000000  2.000000  2.000000  2.000000  2.000000
                       2.000000  2.000000  2.000000  2.000000  2.000000  2.000000
                       2.000000  2.000000  2.000000  2.000000  2.000000  2.000000
                       2.000000  2.000000  2.000000  2.000000  2.000000  2.000000
                       2.000000  2.000000  2.000000  2.000000  2.000000  2.000000
                       2.000000  2.000000  2.000000  2.000000  2.000000  2.000000
                       2.000000  2.000000  2.000000  2.000000  2.000000  2.000000
                       2.000000  2.000000  2.000000  2.000000  2.000000  2.000000
                       2.000000  2.000000  2.000000  2.000000  2.000000  2.000000
                       2.000000  2.000000  2.000000  2.000000  2.000000  2.000000
                       2.000000  2.000000  2.000000  2.000000  2.000000  2.000000
                       2.000000  2.000000  2.000000  2.000000  2.000000  2.000000
                       2.000000  2.000000  2.000000  2.000000  2.000000  2.000000
                       2.000000  2.000000  2.000000  2.000000  2.000000  2.000000
                       2.000000  2.000000  2.000000  2.000000  2.000000  2.000000
                       2.000000  2.000000  2.000000  2.000000  2.000000  2.000000
                       2.000000  2.000000  2.000000  2.000000  2.000000  2.000000
                       2.000000  2.000000  2.000000  2.000000  2.000000  2.000000
                       2.000000  2.000000  2.000000  2.000000  2.000000  2.000000
                       2.000000  2.000000  2.000000  2.000000  2.000000  2.000000
                       2.000000  2.000000  2.000000  2.000000  2.000000  2.000000
                       2.000000  2.000000  2.000000  2.000000  2.000000  2.000000
                       2.000000  2.000000  2.000000  2.000000  2.000000  2.000000
                       2.000000  2.000000  2.000000  2.000000  2.000000  2.000000
                       2.000000  2.000000  2.000000  2.000000  2.000000  2.000000
                       2.000000  2.000000  2.000000  2.000000  2.000000  2.000000
                       2.000000  2.000000  2.000000  2.000000  2.000000  2.000000
                       2.000000  2.000000  2.000000  2.000000  2.000000  2.000000
                       2.000000  2.000000  2.000000  2.000000  2.000000  2.000000
                       2.000000  2.000000  2.000000  2.000000  2.000000  2.000000
                       2.000000  2.000000  2.000000  2.000000  2.000000  2.000000
                       2.000000  2.000000  2.000000  2.000000  2.000000  2.000000
                       2.000000  2.000000  2.000000  2.000000  2.000000  2.000000
                       2.000000  2.000000  2.000000  2.000000  2.000000  2.000000
                       2.000000  2.000000  2.000000  2.000000  2.000000  2.000000
                       2.000000  2.000000  2.000000  2.000000  2.000000  2.000000
                       0.000000  0.000000  0.000000  0.000000  0.000000  0.000000
                       0.000000  0.000000  0.000000  0.000000  0.000000  0.000000
                       0.000000  0.000000  0.000000  0.000000  0.000000  0.000000
                       0.000000  0.000000  0.000000  0.000000  0.000000  0.000000
                       0.000000  0.000000  0.000000  0.000000  0.000000  0.000000
                       0.000000  0.000000  0.000000  0.000000  0.000000  0.000000
                       0.000000  0.000000  0.000000  0.000000  0.000000  0.000000
                       0.000000  0.000000  0.000000  0.000000
           ortalg          -2
        paral_kgb           1
           prtden           0
        prtposcar           1
            prtwf           0
            rprim      9.0560300050E+00 -1.5685504084E+01  0.0000000000E+00
                       9.0560300050E+00  1.5685504084E+01  0.0000000000E+00
                       0.0000000000E+00  0.0000000000E+00  2.5685222633E+01
          spgroup           1
           toldfe      1.00000000E-09 Hartree
           tolsym      1.00000000E-08
            typat      1  1  1  1  1  1  1  1  1  1  1  1  1  1  1  1  1  1  2  2
                       2  2  2  2  2  2  2  2  2  2  2  2  2  2  2  2  2  2  2  2
                       2  2  2  2  2  2  2  2  2  2  2  2  2  2
         wfoptalg         114
              wtk        0.11111    0.22222    0.22222    0.22222    0.22222
           xangst      1.5943653171E+00 -9.1698589816E-01  3.3893592248E+00
                       3.1948297860E+00 -3.6890716739E+00  3.3980086037E+00
                       4.7922446790E+00 -6.4558754293E+00  3.3980086037E+00
                       3.1948297860E+00  1.8445358369E+00  3.3980086037E+00
                       4.7922446790E+00 -9.2226791849E-01  3.3980086037E+00
                       6.3896595720E+00 -3.6890716739E+00  3.3980086037E+00
                       4.7922446790E+00  4.6113395923E+00  3.3980086037E+00
                       6.3896595720E+00  1.8445358369E+00  3.3980086037E+00
                       7.9870744650E+00 -9.2226791849E-01  3.3980086037E+00
                       1.5974148930E+00  9.2226791849E-01  1.0194025811E+01
                       3.1948297860E+00 -1.8445358369E+00  1.0194025811E+01
                       4.7922446790E+00 -4.6113395923E+00  1.0194025811E+01
                       3.1948297860E+00  3.6890716739E+00  1.0194025811E+01
                       4.7922446790E+00  9.2226791849E-01  1.0194025811E+01
                       6.3896595720E+00 -1.8445358369E+00  1.0194025811E+01
                       4.7922446790E+00  6.4558754293E+00  1.0194025811E+01
                       6.3896595720E+00  3.6890716739E+00  1.0194025811E+01
                       7.9870744650E+00  9.2226791849E-01  1.0194025811E+01
                       1.5974148930E+00 -9.2226791849E-01  8.6340852357E+00
                       3.1948297860E+00 -3.6890716739E+00  8.6340852357E+00
                       4.7922446790E+00 -6.4558754293E+00  8.6340852357E+00
                       3.1948297860E+00  1.8445358369E+00  8.6340852357E+00
                       4.7922446790E+00 -9.2226791849E-01  8.6340852357E+00
                       6.3896595720E+00 -3.6890716739E+00  8.6340852357E+00
                       4.7922446790E+00  4.6113395923E+00  8.6340852357E+00
                       6.3896595720E+00  1.8445358369E+00  8.6340852357E+00
                       7.9870744650E+00 -9.2226791849E-01  8.6340852357E+00
                       1.5974148930E+00  9.2226791849E-01  4.9579491792E+00
                       3.1948297860E+00 -1.8445358369E+00  4.9579491792E+00
                       4.7922446790E+00 -4.6113395923E+00  4.9579491792E+00
                       3.1948297860E+00  3.6890716739E+00  4.9579491792E+00
                       4.7922446790E+00  9.2226791849E-01  4.9579491792E+00
                       6.3896595720E+00 -1.8445358369E+00  4.9579491792E+00
                       4.7922446790E+00  6.4558754293E+00  4.9579491792E+00
                       6.3896595720E+00  3.6890716739E+00  4.9579491792E+00
                       7.9870744650E+00  9.2226791849E-01  4.9579491792E+00
                       1.5974148930E+00 -9.2226791849E-01  1.1753966387E+01
                       3.1948297860E+00 -3.6890716739E+00  1.1753966387E+01
                       4.7922446790E+00 -6.4558754293E+00  1.1753966387E+01
                       3.1948297860E+00  1.8445358369E+00  1.1753966387E+01
                       4.7922446790E+00 -9.2226791849E-01  1.1753966387E+01
                       6.3896595720E+00 -3.6890716739E+00  1.1753966387E+01
                       4.7922446790E+00  4.6113395923E+00  1.1753966387E+01
                       6.3896595720E+00  1.8445358369E+00  1.1753966387E+01
                       7.9870744650E+00 -9.2226791849E-01  1.1753966387E+01
                       1.5974148930E+00  9.2226791849E-01  1.8380680282E+00
                       3.1948297860E+00 -1.8445358369E+00  1.8380680282E+00
                       4.7922446790E+00 -4.6113395923E+00  1.8380680282E+00
                       3.1948297860E+00  3.6890716739E+00  1.8380680282E+00
                       4.7922446790E+00  9.2226791849E-01  1.8380680282E+00
                       6.3896595720E+00 -1.8445358369E+00  1.8380680282E+00
                       4.7922446790E+00  6.4558754293E+00  1.8380680282E+00
                       6.3896595720E+00  3.6890716739E+00  1.8380680282E+00
                       7.9870744650E+00  9.2226791849E-01  1.8380680282E+00
            xcart      3.0129138052E+00 -1.7328522152E+00  6.4049607009E+00
                       6.0373533367E+00 -6.9713351483E+00  6.4213056582E+00
                       9.0560300050E+00 -1.2199836509E+01  6.4213056582E+00
                       6.0373533367E+00  3.4856675741E+00  6.4213056582E+00
                       9.0560300050E+00 -1.7428337871E+00  6.4213056582E+00
                       1.2074706673E+01 -6.9713351483E+00  6.4213056582E+00
                       9.0560300050E+00  8.7141689353E+00  6.4213056582E+00
                       1.2074706673E+01  3.4856675741E+00  6.4213056582E+00
                       1.5093383342E+01 -1.7428337871E+00  6.4213056582E+00
                       3.0186766683E+00  1.7428337871E+00  1.9263916975E+01
                       6.0373533367E+00 -3.4856675741E+00  1.9263916975E+01
                       9.0560300050E+00 -8.7141689353E+00  1.9263916975E+01
                       6.0373533367E+00  6.9713351483E+00  1.9263916975E+01
                       9.0560300050E+00  1.7428337871E+00  1.9263916975E+01
                       1.2074706673E+01 -3.4856675741E+00  1.9263916975E+01
                       9.0560300050E+00  1.2199836509E+01  1.9263916975E+01
                       1.2074706673E+01  6.9713351483E+00  1.9263916975E+01
                       1.5093383342E+01  1.7428337871E+00  1.9263916975E+01
                       3.0186766683E+00 -1.7428337871E+00  1.6316056503E+01
                       6.0373533367E+00 -6.9713351483E+00  1.6316056503E+01
                       9.0560300050E+00 -1.2199836509E+01  1.6316056503E+01
                       6.0373533367E+00  3.4856675741E+00  1.6316056503E+01
                       9.0560300050E+00 -1.7428337871E+00  1.6316056503E+01
                       1.2074706673E+01 -6.9713351483E+00  1.6316056503E+01
                       9.0560300050E+00  8.7141689353E+00  1.6316056503E+01
                       1.2074706673E+01  3.4856675741E+00  1.6316056503E+01
                       1.5093383342E+01 -1.7428337871E+00  1.6316056503E+01
                       3.0186766683E+00  1.7428337871E+00  9.3691661295E+00
                       6.0373533367E+00 -3.4856675741E+00  9.3691661295E+00
                       9.0560300050E+00 -8.7141689353E+00  9.3691661295E+00
                       6.0373533367E+00  6.9713351483E+00  9.3691661295E+00
                       9.0560300050E+00  1.7428337871E+00  9.3691661295E+00
                       1.2074706673E+01 -3.4856675741E+00  9.3691661295E+00
                       9.0560300050E+00  1.2199836509E+01  9.3691661295E+00
                       1.2074706673E+01  6.9713351483E+00  9.3691661295E+00
                       1.5093383342E+01  1.7428337871E+00  9.3691661295E+00
                       3.0186766683E+00 -1.7428337871E+00  2.2211777446E+01
                       6.0373533367E+00 -6.9713351483E+00  2.2211777446E+01
                       9.0560300050E+00 -1.2199836509E+01  2.2211777446E+01
                       6.0373533367E+00  3.4856675741E+00  2.2211777446E+01
                       9.0560300050E+00 -1.7428337871E+00  2.2211777446E+01
                       1.2074706673E+01 -6.9713351483E+00  2.2211777446E+01
                       9.0560300050E+00  8.7141689353E+00  2.2211777446E+01
                       1.2074706673E+01  3.4856675741E+00  2.2211777446E+01
                       1.5093383342E+01 -1.7428337871E+00  2.2211777446E+01
                       3.0186766683E+00  1.7428337871E+00  3.4734451870E+00
                       6.0373533367E+00 -3.4856675741E+00  3.4734451870E+00
                       9.0560300050E+00 -8.7141689353E+00  3.4734451870E+00
                       6.0373533367E+00  6.9713351483E+00  3.4734451870E+00
                       9.0560300050E+00  1.7428337871E+00  3.4734451870E+00
                       1.2074706673E+01 -3.4856675741E+00  3.4734451870E+00
                       9.0560300050E+00  1.2199836509E+01  3.4734451870E+00
                       1.2074706673E+01  6.9713351483E+00  3.4734451870E+00
                       1.5093383342E+01  1.7428337871E+00  3.4734451870E+00
             xred      2.2158586576E-01  1.1111111111E-01  2.4936364354E-01
                       5.5555555556E-01  1.1111111111E-01  2.5000000000E-01
                       8.8888888889E-01  1.1111111111E-01  2.5000000000E-01
                       2.2222222222E-01  4.4444444444E-01  2.5000000000E-01
                       5.5555555556E-01  4.4444444444E-01  2.5000000000E-01
                       8.8888888889E-01  4.4444444444E-01  2.5000000000E-01
                       2.2222222222E-01  7.7777777778E-01  2.5000000000E-01
                       5.5555555556E-01  7.7777777778E-01  2.5000000000E-01
                       8.8888888889E-01  7.7777777778E-01  2.5000000000E-01
                       1.1111111111E-01  2.2222222222E-01  7.5000000000E-01
                       4.4444444444E-01  2.2222222222E-01  7.5000000000E-01
                       7.7777777778E-01  2.2222222222E-01  7.5000000000E-01
                       1.1111111111E-01  5.5555555556E-01  7.5000000000E-01
                       4.4444444444E-01  5.5555555556E-01  7.5000000000E-01
                       7.7777777778E-01  5.5555555556E-01  7.5000000000E-01
                       1.1111111111E-01  8.8888888889E-01  7.5000000000E-01
                       4.4444444444E-01  8.8888888889E-01  7.5000000000E-01
                       7.7777777778E-01  8.8888888889E-01  7.5000000000E-01
                       2.2222222222E-01  1.1111111111E-01  6.3523126650E-01
                       5.5555555556E-01  1.1111111111E-01  6.3523126650E-01
                       8.8888888889E-01  1.1111111111E-01  6.3523126650E-01
                       2.2222222222E-01  4.4444444444E-01  6.3523126650E-01
                       5.5555555556E-01  4.4444444444E-01  6.3523126650E-01
                       8.8888888889E-01  4.4444444444E-01  6.3523126650E-01
                       2.2222222222E-01  7.7777777778E-01  6.3523126650E-01
                       5.5555555556E-01  7.7777777778E-01  6.3523126650E-01
                       8.8888888889E-01  7.7777777778E-01  6.3523126650E-01
                       1.1111111111E-01  2.2222222222E-01  3.6476873350E-01
                       4.4444444444E-01  2.2222222222E-01  3.6476873350E-01
                       7.7777777778E-01  2.2222222222E-01  3.6476873350E-01
                       1.1111111111E-01  5.5555555556E-01  3.6476873350E-01
                       4.4444444444E-01  5.5555555556E-01  3.6476873350E-01
                       7.7777777778E-01  5.5555555556E-01  3.6476873350E-01
                       1.1111111111E-01  8.8888888889E-01  3.6476873350E-01
                       4.4444444444E-01  8.8888888889E-01  3.6476873350E-01
                       7.7777777778E-01  8.8888888889E-01  3.6476873350E-01
                       2.2222222222E-01  1.1111111111E-01  8.6476873350E-01
                       5.5555555556E-01  1.1111111111E-01  8.6476873350E-01
                       8.8888888889E-01  1.1111111111E-01  8.6476873350E-01
                       2.2222222222E-01  4.4444444444E-01  8.6476873350E-01
                       5.5555555556E-01  4.4444444444E-01  8.6476873350E-01
                       8.8888888889E-01  4.4444444444E-01  8.6476873350E-01
                       2.2222222222E-01  7.7777777778E-01  8.6476873350E-01
                       5.5555555556E-01  7.7777777778E-01  8.6476873350E-01
                       8.8888888889E-01  7.7777777778E-01  8.6476873350E-01
                       1.1111111111E-01  2.2222222222E-01  1.3523126650E-01
                       4.4444444444E-01  2.2222222222E-01  1.3523126650E-01
                       7.7777777778E-01  2.2222222222E-01  1.3523126650E-01
                       1.1111111111E-01  5.5555555556E-01  1.3523126650E-01
                       4.4444444444E-01  5.5555555556E-01  1.3523126650E-01
                       7.7777777778E-01  5.5555555556E-01  1.3523126650E-01
                       1.1111111111E-01  8.8888888889E-01  1.3523126650E-01
                       4.4444444444E-01  8.8888888889E-01  1.3523126650E-01
                       7.7777777778E-01  8.8888888889E-01  1.3523126650E-01
            znucl       42.00000   16.00000
 
================================================================================
 
 chkinp: Checking input parameters for consistency.
 
================================================================================
== DATASET  1 ==================================================================
-   mpi_nproc: 125, omp_nthreads: -1 (-1 if OMP is not activated)
 

--- !DatasetInfo
iteration_state: {dtset: 1, }
dimensions: {natom: 54, nkpt: 5, mband: 280, nsppol: 1, nspinor: 1, nspden: 1, mpw: 1253, }
cutoff_energies: {ecut:  20.0, pawecutdg:  -1.0, }
electrons: {nelect:   4.68000000E+02, charge:   0.00000000E+00, occopt:   1.00000000E+00, tsmear:   1.00000000E-02, }
meta: {optdriver: 0, ionmov: 0, optcell: 0, iscf: 7, paral_kgb: 1, }
...

 mkfilename: getden from: ../superc/superc_DEN
 
 Exchange-correlation functional for the present dataset will be:
  GGA: Perdew-Burke-Ernzerhof functional - ixc=11
 Citation for XC functional:
  J.P.Perdew, K.Burke, M.Ernzerhof, PRL 77, 3865 (1996)
 
 Real(R)+Recip(G) space primitive vectors, cartesian coordinates (Bohr,Bohr^-1):
 R(1)=  9.0560300-15.6855041  0.0000000  G(1)=  0.0552118 -0.0318766  0.0000000
 R(2)=  9.0560300 15.6855041  0.0000000  G(2)=  0.0552118  0.0318766  0.0000000
 R(3)=  0.0000000  0.0000000 25.6852226  G(3)=  0.0000000  0.0000000  0.0389329
 Unit cell volume ucvol=  7.2970893E+03 bohr^3
 Angles (23,13,12)=  9.00000000E+01  9.00000000E+01  1.20000000E+02 degrees
 
 getcut: wavevector=  0.0000  0.0000  0.0000  ngfft=  75  75 120
         ecut(hartree)=     20.000   => boxcut(ratio)=   2.02972
 
--- Pseudopotential description ------------------------------------------------
- pspini: atom type   1  psp file is mo.psp8
- pspatm: opening atomic psp file    mo.psp8
- Mo    ONCVPSP-3.2.3.1  r_core=   1.45541   1.45541   1.35488
- 42.00000  14.00000    170510                znucl, zion, pspdat
    8   11    2    4       600   0.00000      pspcod,pspxc,lmax,lloc,mmax,r2well
    5.99000000000000    3.00000000000000    0.00000000000000   rchrg,fchrg,qchrg
     nproj     2     2     2
     extension_switch     1
  pspatm : epsatm=   15.95693586
         --- l  ekb(1:nproj) -->
             0   13.833287    1.350687
             1    8.015347    1.134034
             2    2.765699    0.969071
 pspatm: atomic psp has been read  and splines computed
 
- pspini: atom type   2  psp file is s.psp8
- pspatm: opening atomic psp file    s.psp8
- S     ONCVPSP-3.2.3.1  r_core=   1.45376   1.45376   1.61851
- 16.00000   6.00000    170504                znucl, zion, pspdat
    8   11    2    4       600   0.00000      pspcod,pspxc,lmax,lloc,mmax,r2well
    5.99000000000000    6.00000000000000    0.00000000000000   rchrg,fchrg,qchrg
     nproj     2     2     2
     extension_switch     1
  pspatm : epsatm=    9.01821879
         --- l  ekb(1:nproj) -->
             0    6.763951    0.574108
             1    3.227080    0.887329
             2   -3.547662   -0.986524
 pspatm: atomic psp has been read  and splines computed
 
   2.86360178E+05                                ecore*ucvol(ha*bohr**3)
--------------------------------------------------------------------------------
 
_setup2: Arith. and geom. avg. npw (full set) are    1253.667    1253.665
 
================================================================================

--- !BeginCycle
iteration_state: {dtset: 1, }
solver: {iscf: 7, nstep: 100, nline: 4, wfoptalg: 114, }
tolerances: {toldfe: 1.00E-09, }
...
 
     iter   Etot(hartree)      deltaE(h)  residm     vres2
 ETOT  1  -1662.4352204764    -1.662E+03 4.409E-03 8.295E+02
 ETOT  2  -1662.6183103768    -1.831E-01 1.964E-04 8.355E+02
 ETOT  3  -1662.5899825991     2.833E-02 4.087E-03 5.621E+02
 ETOT  4  -1662.6495319617    -5.955E-02 1.577E-02 7.652E+01
 ETOT  5  -1662.7065224240    -5.699E-02 6.040E-05 6.821E+00
 ETOT  6  -1662.7081116329    -1.589E-03 3.014E-05 1.539E+00
 ETOT  7  -1662.7083440731    -2.324E-04 1.488E-05 2.925E-01
 ETOT  8  -1662.7084324671    -8.839E-05 7.484E-06 5.892E-02
 ETOT  9  -1662.7084360478    -3.581E-06 4.361E-06 1.577E-02
 ETOT 10  -1662.7084376244    -1.577E-06 3.581E-06 4.833E-03
 ETOT 11  -1662.7084388027    -1.178E-06 1.740E-06 1.555E-03
 ETOT 12  -1662.7084388798    -7.707E-08 1.097E-06 9.632E-04
 ETOT 13  -1662.7084390690    -1.892E-07 8.822E-07 1.320E-04
 ETOT 14  -1662.7084391003    -3.133E-08 5.523E-07 1.758E-05
 ETOT 15  -1662.7084391082    -7.923E-09 5.040E-07 1.903E-05
 ETOT 16  -1662.7084391120    -3.741E-09 3.146E-07 5.816E-06
 ETOT 17  -1662.7084391120    -3.638E-12 2.494E-07 3.127E-06
 ETOT 18  -1662.7084391124    -4.202E-10 1.773E-07 1.665E-06
 
 At SCF step   18, etot is converged : 
  for the second time, diff in etot=  4.202E-10 < toldfe=  1.000E-09
 
 Cartesian components of stress tensor (hartree/bohr^3)
  sigma(1 1)=  6.93745006E-04  sigma(3 2)=  1.05210788E-08
  sigma(2 2)=  6.93424413E-04  sigma(3 1)= -5.97752476E-09
  sigma(3 3)=  6.57858042E-04  sigma(2 1)= -9.15685416E-08
 

--- !ResultsGS
iteration_state: {dtset: 1, }
comment   : Summary of ground state results
lattice_vectors:
- [  9.0560300, -15.6855041,   0.0000000, ]
- [  9.0560300,  15.6855041,   0.0000000, ]
- [  0.0000000,   0.0000000,  25.6852226, ]
lattice_lengths: [  18.11206,   18.11206,   25.68522, ]
lattice_angles: [ 90.000,  90.000, 120.000, ] # degrees, (23, 13, 12)
lattice_volume:   7.2970893E+03
convergence: {deltae: -4.202E-10, res2:  1.665E-06, residm:  1.773E-07, diffor: null, }
etotal    :  -1.66270844E+03
entropy   :   0.00000000E+00
fermie    :   2.46263432E-01
cartesian_stress_tensor: # hartree/bohr^3
- [  6.93745006E-04,  -9.15685416E-08,  -5.97752476E-09, ]
- [ -9.15685416E-08,   6.93424413E-04,   1.05210788E-08, ]
- [ -5.97752476E-09,   1.05210788E-08,   6.57858042E-04, ]
pressure_GPa:  -2.0056E+01
xred      :
- [  2.2159E-01,   1.1111E-01,   2.4936E-01, Mo]
- [  5.5556E-01,   1.1111E-01,   2.5000E-01, Mo]
- [  8.8889E-01,   1.1111E-01,   2.5000E-01, Mo]
- [  2.2222E-01,   4.4444E-01,   2.5000E-01, Mo]
- [  5.5556E-01,   4.4444E-01,   2.5000E-01, Mo]
- [  8.8889E-01,   4.4444E-01,   2.5000E-01, Mo]
- [  2.2222E-01,   7.7778E-01,   2.5000E-01, Mo]
- [  5.5556E-01,   7.7778E-01,   2.5000E-01, Mo]
- [  8.8889E-01,   7.7778E-01,   2.5000E-01, Mo]
- [  1.1111E-01,   2.2222E-01,   7.5000E-01, Mo]
- [  4.4444E-01,   2.2222E-01,   7.5000E-01, Mo]
- [  7.7778E-01,   2.2222E-01,   7.5000E-01, Mo]
- [  1.1111E-01,   5.5556E-01,   7.5000E-01, Mo]
- [  4.4444E-01,   5.5556E-01,   7.5000E-01, Mo]
- [  7.7778E-01,   5.5556E-01,   7.5000E-01, Mo]
- [  1.1111E-01,   8.8889E-01,   7.5000E-01, Mo]
- [  4.4444E-01,   8.8889E-01,   7.5000E-01, Mo]
- [  7.7778E-01,   8.8889E-01,   7.5000E-01, Mo]
- [  2.2222E-01,   1.1111E-01,   6.3523E-01,  S]
- [  5.5556E-01,   1.1111E-01,   6.3523E-01,  S]
- [  8.8889E-01,   1.1111E-01,   6.3523E-01,  S]
- [  2.2222E-01,   4.4444E-01,   6.3523E-01,  S]
- [  5.5556E-01,   4.4444E-01,   6.3523E-01,  S]
- [  8.8889E-01,   4.4444E-01,   6.3523E-01,  S]
- [  2.2222E-01,   7.7778E-01,   6.3523E-01,  S]
- [  5.5556E-01,   7.7778E-01,   6.3523E-01,  S]
- [  8.8889E-01,   7.7778E-01,   6.3523E-01,  S]
- [  1.1111E-01,   2.2222E-01,   3.6477E-01,  S]
- [  4.4444E-01,   2.2222E-01,   3.6477E-01,  S]
- [  7.7778E-01,   2.2222E-01,   3.6477E-01,  S]
- [  1.1111E-01,   5.5556E-01,   3.6477E-01,  S]
- [  4.4444E-01,   5.5556E-01,   3.6477E-01,  S]
- [  7.7778E-01,   5.5556E-01,   3.6477E-01,  S]
- [  1.1111E-01,   8.8889E-01,   3.6477E-01,  S]
- [  4.4444E-01,   8.8889E-01,   3.6477E-01,  S]
- [  7.7778E-01,   8.8889E-01,   3.6477E-01,  S]
- [  2.2222E-01,   1.1111E-01,   8.6477E-01,  S]
- [  5.5556E-01,   1.1111E-01,   8.6477E-01,  S]
- [  8.8889E-01,   1.1111E-01,   8.6477E-01,  S]
- [  2.2222E-01,   4.4444E-01,   8.6477E-01,  S]
- [  5.5556E-01,   4.4444E-01,   8.6477E-01,  S]
- [  8.8889E-01,   4.4444E-01,   8.6477E-01,  S]
- [  2.2222E-01,   7.7778E-01,   8.6477E-01,  S]
- [  5.5556E-01,   7.7778E-01,   8.6477E-01,  S]
- [  8.8889E-01,   7.7778E-01,   8.6477E-01,  S]
- [  1.1111E-01,   2.2222E-01,   1.3523E-01,  S]
- [  4.4444E-01,   2.2222E-01,   1.3523E-01,  S]
- [  7.7778E-01,   2.2222E-01,   1.3523E-01,  S]
- [  1.1111E-01,   5.5556E-01,   1.3523E-01,  S]
- [  4.4444E-01,   5.5556E-01,   1.3523E-01,  S]
- [  7.7778E-01,   5.5556E-01,   1.3523E-01,  S]
- [  1.1111E-01,   8.8889E-01,   1.3523E-01,  S]
- [  4.4444E-01,   8.8889E-01,   1.3523E-01,  S]
- [  7.7778E-01,   8.8889E-01,   1.3523E-01,  S]
cartesian_forces: # hartree/bohr
- [  1.42832140E-03,  -2.48599702E-03,   4.39778117E-03, ]
- [ -1.71315229E-04,   4.70283940E-05,   1.06418833E-04, ]
- [  4.23950999E-05,   1.77516617E-04,   1.04592525E-04, ]
- [ -9.65093605E-05,   7.52890913E-06,   1.06232131E-04, ]
- [  4.55268748E-05,   8.76311307E-05,   1.04622872E-04, ]
- [ -1.59586273E-05,   2.75469426E-05,  -1.94137931E-05, ]
- [  1.18419883E-04,   1.29375677E-04,   1.06996149E-04, ]
- [ -1.58641194E-05,   2.76095901E-05,  -1.94032442E-05, ]
- [ -1.74736319E-04,  -3.72684486E-05,   1.04352646E-04, ]
- [ -7.54760546E-07,  -1.99833595E-07,   5.82086156E-07, ]
- [  5.71051006E-07,   5.42078529E-07,   6.49693024E-07, ]
- [ -1.93491892E-07,   3.92903919E-07,  -2.22520252E-07, ]
- [ -6.11052768E-07,   6.83763047E-07,  -8.20888310E-08, ]
- [  7.72461504E-07,  -1.36948506E-06,  -4.24002908E-06, ]
- [ -2.51778283E-07,   8.87551789E-07,  -1.78774761E-07, ]
- [ -7.21883626E-07,   1.32983399E-06,   1.01666242E-06, ]
- [  8.60412522E-07,   3.89372501E-07,  -4.03753010E-06, ]
- [ -6.44019432E-07,  -5.76036917E-07,  -4.15449442E-06, ]
- [ -1.28897421E-07,   1.88330320E-07,   4.16110332E-05, ]
- [  6.16303902E-07,   1.63196324E-07,   3.65678345E-05, ]
- [  6.41881823E-07,   1.80051347E-07,   3.68567938E-05, ]
- [ -8.16871016E-07,   1.70526010E-07,   3.71562872E-05, ]
- [  2.98165724E-07,  -4.72659963E-07,   3.62891992E-05, ]
- [ -1.31772191E-08,   5.82356631E-08,   3.69254993E-05, ]
- [ -6.42008305E-07,   4.82293051E-07,   3.70166337E-05, ]
- [  2.76704556E-07,  -4.61469036E-07,   3.88995744E-05, ]
- [ -1.04734798E-07,  -4.91709942E-07,   3.64574610E-05, ]
- [ -9.71186688E-05,  -6.25815050E-05,  -4.69457687E-04, ]
- [ -8.72731897E-04,   6.15922080E-04,  -1.11526223E-03, ]
- [ -8.15953640E-06,   1.15735115E-05,  -6.84752201E-05, ]
- [  2.82463841E-06,   6.54581647E-06,  -6.85805898E-05, ]
- [ -5.27326637E-07,  -6.05610897E-05,  -7.15168129E-05, ]
- [ -7.05237859E-06,   3.33472061E-06,  -6.86618400E-05, ]
- [  3.92812521E-04,   4.50944261E-04,  -7.95264802E-04, ]
- [  2.59290590E-05,   5.11952437E-05,  -7.63485963E-05, ]
- [ -4.31656463E-06,  -2.77675916E-05,  -6.66188208E-05, ]
- [ -1.46220156E-07,   2.11446600E-07,  -3.31405869E-05, ]
- [ -4.83644657E-07,  -4.32999373E-07,  -3.78444288E-05, ]
- [ -4.30113353E-07,  -4.92050452E-07,  -3.81100435E-05, ]
- [  2.20499819E-07,  -4.84191225E-07,  -3.83751220E-05, ]
- [  2.49707435E-07,   7.74871051E-07,  -3.75586140E-05, ]
- [ -2.21471390E-08,   7.39334649E-08,  -3.77806213E-05, ]
- [  4.52690962E-07,  -1.07144755E-07,  -3.82652712E-05, ]
- [  2.79582380E-07,  -4.52913264E-07,  -3.57927640E-05, ]
- [ -6.24068405E-08,   7.76392492E-07,  -3.76991749E-05, ]
- [ -9.69570212E-05,   1.11143438E-03,  -1.08040057E-03, ]
- [  1.02057210E-04,   5.30315607E-05,  -3.96673593E-04, ]
- [ -6.41900798E-06,   1.36568681E-05,   6.00307596E-06, ]
- [  6.15452126E-07,   8.35575709E-06,   5.28296871E-06, ]
- [  5.23795031E-05,  -2.91037381E-05,   3.23983327E-06, ]
- [ -7.53555750E-06,   1.05757424E-06,   6.98729919E-06, ]
- [ -6.02657716E-04,  -1.24066391E-04,  -7.35399980E-04, ]
- [  2.55353553E-05,  -9.49190255E-06,   7.98152932E-06, ]
- [ -5.81699181E-05,   3.78436518E-06,  -1.55994434E-06, ]
force_length_stats: {min:   4.91251325E-07, max:   5.24983451E-03, mean:   2.54327962E-04, }
...

 Integrated electronic density in atomic spheres:
 ------------------------------------------------
 Atom  Sphere_radius  Integrated_density
    1        2.00000         10.47494438
    2        2.00000         10.46119244
    3        2.00000         10.46155412
    4        2.00000         10.46154216
    5        2.00000         10.46120406
    6        2.00000         10.46137046
    7        2.00000         10.46136262
    8        2.00000         10.46137019
    9        2.00000         10.46138346
   10        2.00000         10.46136760
   11        2.00000         10.46136575
   12        2.00000         10.46136745
   13        2.00000         10.46136778
   14        2.00000         10.46136735
   15        2.00000         10.46136657
   16        2.00000         10.46136956
   17        2.00000         10.46136429
   18        2.00000         10.46136819
   19        2.00000          3.93329337
   20        2.00000          3.93329944
   21        2.00000          3.93330622
   22        2.00000          3.93330738
   23        2.00000          3.93329782
   24        2.00000          3.93330500
   25        2.00000          3.93330384
   26        2.00000          3.93330049
   27        2.00000          3.93330121
   28        2.00000          3.93276254
   29        2.00000          3.93088167
   30        2.00000          3.93324923
   31        2.00000          3.93326571
   32        2.00000          3.93325602
   33        2.00000          3.93323264
   34        2.00000          3.93181708
   35        2.00000          3.93322238
   36        2.00000          3.93328919
   37        2.00000          3.93330555
   38        2.00000          3.93329257
   39        2.00000          3.93329961
   40        2.00000          3.93330084
   41        2.00000          3.93329111
   42        2.00000          3.93329342
   43        2.00000          3.93329717
   44        2.00000          3.93329838
   45        2.00000          3.93329469
   46        2.00000          3.93577772
   47        2.00000          3.93382924
   48        2.00000          3.93334693
   49        2.00000          3.93336372
   50        2.00000          3.93334140
   51        2.00000          3.93332954
   52        2.00000          3.93479777
   53        2.00000          3.93330747
   54        2.00000          3.93337500
================================================================================
 
 ----iterations are completed or convergence reached----
 
 Mean square residual over all n,k,spin=   11.496E-10; max=  17.726E-08
 reduced coordinates (array xred) for   54 atoms
       0.221585865763      0.111111111110      0.249363643540
       0.555555555557      0.111111111110      0.250000000000
       0.888888888890      0.111111111110      0.250000000000
       0.222222222223      0.444444444443      0.250000000000
       0.555555555557      0.444444444443      0.250000000000
       0.888888888890      0.444444444443      0.250000000000
       0.222222222223      0.777777777777      0.250000000000
       0.555555555557      0.777777777777      0.250000000000
       0.888888888890      0.777777777777      0.250000000000
       0.111111111110      0.222222222223      0.750000000000
       0.444444444443      0.222222222223      0.750000000000
       0.777777777777      0.222222222223      0.750000000000
       0.111111111110      0.555555555557      0.750000000000
       0.444444444443      0.555555555557      0.750000000000
       0.777777777777      0.555555555557      0.750000000000
       0.111111111110      0.888888888890      0.750000000000
       0.444444444443      0.888888888890      0.750000000000
       0.777777777777      0.888888888890      0.750000000000
       0.222222222223      0.111111111110      0.635231266500
       0.555555555557      0.111111111110      0.635231266500
       0.888888888890      0.111111111110      0.635231266500
       0.222222222223      0.444444444443      0.635231266500
       0.555555555557      0.444444444443      0.635231266500
       0.888888888890      0.444444444443      0.635231266500
       0.222222222223      0.777777777777      0.635231266500
       0.555555555557      0.777777777777      0.635231266500
       0.888888888890      0.777777777777      0.635231266500
       0.111111111110      0.222222222223      0.364768733500
       0.444444444443      0.222222222223      0.364768733500
       0.777777777777      0.222222222223      0.364768733500
       0.111111111110      0.555555555557      0.364768733500
       0.444444444443      0.555555555557      0.364768733500
       0.777777777777      0.555555555557      0.364768733500
       0.111111111110      0.888888888890      0.364768733500
       0.444444444443      0.888888888890      0.364768733500
       0.777777777777      0.888888888890      0.364768733500
       0.222222222223      0.111111111110      0.864768733500
       0.555555555557      0.111111111110      0.864768733500
       0.888888888890      0.111111111110      0.864768733500
       0.222222222223      0.444444444443      0.864768733500
       0.555555555557      0.444444444443      0.864768733500
       0.888888888890      0.444444444443      0.864768733500
       0.222222222223      0.777777777777      0.864768733500
       0.555555555557      0.777777777777      0.864768733500
       0.888888888890      0.777777777777      0.864768733500
       0.111111111110      0.222222222223      0.135231266500
       0.444444444443      0.222222222223      0.135231266500
       0.777777777777      0.222222222223      0.135231266500
       0.111111111110      0.555555555557      0.135231266500
       0.444444444443      0.555555555557      0.135231266500
       0.777777777777      0.555555555557      0.135231266500
       0.111111111110      0.888888888890      0.135231266500
       0.444444444443      0.888888888890      0.135231266500
       0.777777777777      0.888888888890      0.135231266500
 rms dE/dt=  1.1111E-02; max dE/dt=  2.8645E-02; dE/dt below (all hartree)
    1      -0.051928914957      0.026059148900     -0.112958509161
    2       0.002289222798      0.000813725701     -0.002733912089
    3       0.002400629200     -0.003168415006     -0.002687002957
    4       0.000992209276      0.000755850841     -0.002729116596
    5       0.000962368590     -0.001786877291     -0.002687782425
    6       0.000576732365     -0.000287611962      0.000498126931
    7       0.000957031563     -0.003101782810     -0.002748740580
    8       0.000576859156     -0.000289450487      0.000497855979
    9       0.000997965822      0.002166945661     -0.002680841609
   10       0.000003823520      0.000009923536     -0.000015471679
   11       0.000003454196     -0.000013720319     -0.000017208177
   12       0.000008038041     -0.000004456717      0.000005194815
   13       0.000016381757     -0.000005237545      0.000001587803
   14      -0.000028353622      0.000014439540      0.000108385424
   15       0.000016324685     -0.000011687674      0.000004071203
   16       0.000027519393     -0.000014367806     -0.000026633867
   17      -0.000001561541     -0.000013945514      0.000103184193
   18      -0.000003080294      0.000014821600      0.000106188447
   19       0.000004244231     -0.000001832846     -0.001069309319
   20      -0.000002898574     -0.000008187172     -0.000939773638
   21      -0.000002865828     -0.000008683186     -0.000947195622
   22       0.000010195271      0.000004676733     -0.000954888175
   23      -0.000009991231      0.000004667623     -0.000932616826
   24       0.000001155665     -0.000000840211     -0.000948960337
   25       0.000013501933     -0.000001797052     -0.000951301143
   26      -0.000009621343      0.000004686441     -0.000999664896
   27      -0.000006641360      0.000008615111     -0.000936938668
   28      -0.000101989998      0.001861085942      0.012057604533
   29       0.017564657426     -0.001757608154      0.028645238066
   30       0.000255552244     -0.000107689444      0.001758280607
   31       0.000077217297     -0.000128300530      0.001760987050
   32      -0.000945032857      0.000954660616      0.001836404595
   33       0.000116296202      0.000011513689      0.001763073981
   34       0.003516088941     -0.010630656106      0.020426032827
   35       0.000568331743     -0.001037883629      0.001960510028
   36      -0.000396334857      0.000474593522      0.001710598576
   37       0.000004763697     -0.000002038561      0.000850702687
   38      -0.000002289036      0.000011125625      0.000971521912
   39      -0.000003700064      0.000011567090      0.000978344285
   40      -0.000009468760      0.000005551842      0.000985152886
   41       0.000010015761     -0.000014461690      0.000964180695
   42       0.000001483125     -0.000001005207      0.000969883002
   43      -0.000005657326     -0.000002465052      0.000982331342
   44      -0.000009513203      0.000004526178      0.000918824446
   45       0.000012866142     -0.000011659038      0.000967791033
   46       0.018311577096     -0.016555408923      0.027749808577
   47      -0.000092283522     -0.001756106010      0.010188128890
   48       0.000272468465     -0.000156130220     -0.000154711009
   49       0.000125613586     -0.000136683904     -0.000136214894
   50      -0.000930734278     -0.000017889638     -0.000083736506
   51       0.000084953696      0.000051607561     -0.000179991002
   52       0.003511765360      0.007403684149      0.018888391531
   53      -0.000380011344     -0.000082409757     -0.000205528024
   54       0.000586271076      0.000467382760      0.000039546851
 
 cartesian coordinates (angstrom) at end:
    1      1.59436531713228    -0.91698589815822     3.38935922482697
    2      3.19482978598643    -3.68907167390813     3.39800860373591
    3      4.79224467897964    -6.45587542932540     3.39800860373591
    4      3.19482978598643     1.84453583692640     3.39800860373591
    5      4.79224467897964    -0.92226791849087     3.39800860373591
    6      6.38965957197285    -3.68907167390813     3.39800860373591
    7      4.79224467897964     4.61133959234366     3.39800860373591
    8      6.38965957197285     1.84453583692640     3.39800860373591
    9      7.98707446496607    -0.92226791849087     3.39800860373591
   10      1.59741489299321     0.92226791849087    10.19402581120772
   11      3.19482978598643    -1.84453583692640    10.19402581120772
   12      4.79224467897964    -4.61133959234366    10.19402581120772
   13      3.19482978598643     3.68907167390814    10.19402581120772
   14      4.79224467897964     0.92226791849087    10.19402581120772
   15      6.38965957197285    -1.84453583692640    10.19402581120772
   16      4.79224467897964     6.45587542932540    10.19402581120772
   17      6.38965957197285     3.68907167390813    10.19402581120772
   18      7.98707446496607     0.92226791849087    10.19402581120772
   19      1.59741489299321    -0.92226791849087     8.63408523571622
   20      3.19482978598643    -3.68907167390813     8.63408523571622
   21      4.79224467897964    -6.45587542932540     8.63408523571622
   22      3.19482978598643     1.84453583692640     8.63408523571622
   23      4.79224467897964    -0.92226791849087     8.63408523571622
   24      6.38965957197285    -3.68907167390813     8.63408523571622
   25      4.79224467897964     4.61133959234366     8.63408523571622
   26      6.38965957197285     1.84453583692640     8.63408523571622
   27      7.98707446496607    -0.92226791849087     8.63408523571622
   28      1.59741489299321     0.92226791849087     4.95794917922740
   29      3.19482978598643    -1.84453583692640     4.95794917922740
   30      4.79224467897964    -4.61133959234366     4.95794917922740
   31      3.19482978598643     3.68907167390814     4.95794917922740
   32      4.79224467897964     0.92226791849087     4.95794917922740
   33      6.38965957197285    -1.84453583692640     4.95794917922740
   34      4.79224467897964     6.45587542932540     4.95794917922740
   35      6.38965957197285     3.68907167390813     4.95794917922740
   36      7.98707446496607     0.92226791849087     4.95794917922740
   37      1.59741489299321    -0.92226791849087    11.75396638669921
   38      3.19482978598643    -3.68907167390813    11.75396638669921
   39      4.79224467897964    -6.45587542932540    11.75396638669921
   40      3.19482978598643     1.84453583692640    11.75396638669921
   41      4.79224467897964    -0.92226791849087    11.75396638669921
   42      6.38965957197285    -3.68907167390813    11.75396638669921
   43      4.79224467897964     4.61133959234366    11.75396638669921
   44      6.38965957197285     1.84453583692640    11.75396638669921
   45      7.98707446496607    -0.92226791849087    11.75396638669921
   46      1.59741489299321     0.92226791849087     1.83806802824441
   47      3.19482978598643    -1.84453583692640     1.83806802824441
   48      4.79224467897964    -4.61133959234366     1.83806802824441
   49      3.19482978598643     3.68907167390814     1.83806802824441
   50      4.79224467897964     0.92226791849087     1.83806802824441
   51      6.38965957197285    -1.84453583692640     1.83806802824441
   52      4.79224467897964     6.45587542932540     1.83806802824441
   53      6.38965957197285     3.68907167390813     1.83806802824441
   54      7.98707446496607     0.92226791849087     1.83806802824441
 
 cartesian forces (hartree/bohr) at end:
    1      0.00142832139635    -0.00248599702014     0.00439778117200
    2     -0.00017131522920     0.00004702839399     0.00010641883318
    3      0.00004239509989     0.00017751661696     0.00010459252498
    4     -0.00009650936052     0.00000752890913     0.00010623213075
    5      0.00004552687481     0.00008763113066     0.00010462287193
    6     -0.00001595862726     0.00002754694261    -0.00001941379310
    7      0.00011841988340     0.00012937567661     0.00010699614922
    8     -0.00001586411938     0.00002760959013    -0.00001940324417
    9     -0.00017473631900    -0.00003726844859     0.00010435264591
   10     -0.00000075476055    -0.00000019983359     0.00000058208616
   11      0.00000057105101     0.00000054207853     0.00000064969302
   12     -0.00000019349189     0.00000039290392    -0.00000022252025
   13     -0.00000061105277     0.00000068376305    -0.00000008208883
   14      0.00000077246150    -0.00000136948506    -0.00000424002908
   15     -0.00000025177828     0.00000088755179    -0.00000017877476
   16     -0.00000072188363     0.00000132983399     0.00000101666242
   17      0.00000086041252     0.00000038937250    -0.00000403753010
   18     -0.00000064401943    -0.00000057603692    -0.00000415449442
   19     -0.00000012889742     0.00000018833032     0.00004161103321
   20      0.00000061630390     0.00000016319632     0.00003656783453
   21      0.00000064188182     0.00000018005135     0.00003685679383
   22     -0.00000081687102     0.00000017052601     0.00003715628716
   23      0.00000029816572    -0.00000047265996     0.00003628919915
   24     -0.00000001317722     0.00000005823566     0.00003692549928
   25     -0.00000064200830     0.00000048229305     0.00003701663366
   26      0.00000027670456    -0.00000046146904     0.00003889957443
   27     -0.00000010473480    -0.00000049170994     0.00003645746097
   28     -0.00009711866879    -0.00006258150503    -0.00046945768670
   29     -0.00087273189662     0.00061592208041    -0.00111526223236
   30     -0.00000815953640     0.00001157351145    -0.00006847522013
   31      0.00000282463841     0.00000654581647    -0.00006858058980
   32     -0.00000052732664    -0.00006056108967    -0.00007151681292
   33     -0.00000705237859     0.00000333472061    -0.00006866184003
   34      0.00039281252096     0.00045094426059    -0.00079526480207
   35      0.00002592905902     0.00005119524366    -0.00007634859633
   36     -0.00000431656463    -0.00002776759164    -0.00006661882077
   37     -0.00000014622016     0.00000021144660    -0.00003314058694
   38     -0.00000048364466    -0.00000043299937    -0.00003784442878
   39     -0.00000043011335    -0.00000049205045    -0.00003811004350
   40      0.00000022049982    -0.00000048419123    -0.00003837512201
   41      0.00000024970743     0.00000077487105    -0.00003755861397
   42     -0.00000002214714     0.00000007393346    -0.00003778062127
   43      0.00000045269096    -0.00000010714476    -0.00003826527115
   44      0.00000027958238    -0.00000045291326    -0.00003579276404
   45     -0.00000006240684     0.00000077639249    -0.00003769917486
   46     -0.00009695702118     0.00111143438131    -0.00108040057273
   47      0.00010205721046     0.00005303156066    -0.00039667359332
   48     -0.00000641900798     0.00001365686807     0.00000600307596
   49      0.00000061545213     0.00000835575709     0.00000528296871
   50      0.00005237950309    -0.00002910373808     0.00000323983327
   51     -0.00000753555750     0.00000105757424     0.00000698729919
   52     -0.00060265771619    -0.00012406639066    -0.00073539997951
   53      0.00002553535532    -0.00000949190255     0.00000798152932
   54     -0.00005816991814     0.00000378436518    -0.00000155994434
 frms,max,avg= 4.6453688E-04 4.3977812E-03  -4.240E-09  5.386E-09  2.027E-08 h/b
 
 cartesian forces (eV/Angstrom) at end:
    1      0.07344723310176    -0.12783509586524     0.22614298133204
    2     -0.00880938254172     0.00241829704747     0.00547227596470
    3      0.00218004350557     0.00912827069474     0.00537836342918
    4     -0.00496271043506     0.00038715204100     0.00546267534067
    5      0.00234108583335     0.00450617353833     0.00537992393159
    6     -0.00082062553959     0.00141652062383    -0.00099829729574
    7      0.00608939472728     0.00665276421795     0.00550196274636
    8     -0.00081576574905     0.00141974208852    -0.00099775484772
    9     -0.00898530203757    -0.00191642051852     0.00536602835251
   10     -0.00003881134448    -0.00001027585573     0.00002993207108
   11      0.00002936462090     0.00002787479639     0.00003340855575
   12     -0.00000994975231     0.00002020393013    -0.00001144245046
   13     -0.00003142159407     0.00003516050659    -0.00000422117705
   14      0.00003972156428    -0.00007042174720    -0.00021803104332
   15     -0.00001294695880     0.00004563974420    -0.00000919296706
   16     -0.00003712074545     0.00006838280742     0.00005227887912
   17      0.00004424418708     0.00002002233734    -0.00020761812810
   18     -0.00003311680792    -0.00002962100673    -0.00021363267456
   19     -0.00000662817132     0.00000968433362     0.00213972517926
   20      0.00003169161820     0.00000839189171     0.00188039349812
   21      0.00003300688765     0.00000925861173     0.00189525238114
   22     -0.00004200519298     0.00000876879926     0.00191065294658
   23      0.00001533229668    -0.00002430515050     0.00186606549213
   24     -0.00000067759980     0.00000299459795     0.00189878535736
   25     -0.00003301339161     0.00002480050373     0.00190347167498
   26      0.00001422871914    -0.00002372968994     0.00200029637458
   27     -0.00000538567941    -0.00002528473969     0.00187471786163
   28     -0.00499404232351    -0.00321807010633    -0.02414048283173
   29     -0.04487767473802     0.03167198414054    -0.05734908498818
   30     -0.00041958019660     0.00059513383717    -0.00352113709639
   31      0.00014524873462     0.00033659938814    -0.00352655542232
   32     -0.00002711622368    -0.00311417617984    -0.00367754207309
   33     -0.00036264785763     0.00017147821407    -0.00353073347716
   34      0.02019923027533     0.02318848426405    -0.04089415690682
   35      0.00133332571158     0.00263256505476    -0.00392600234514
   36     -0.00022196665942    -0.00142786685182    -0.00342567721156
   37     -0.00000751894211     0.00001087302044    -0.00170415735564
   38     -0.00002487000614    -0.00002226572112    -0.00194603860811
   39     -0.00002211731603    -0.00002530224944    -0.00195969706513
   40      0.00001133855562    -0.00002489811177    -0.00197332794892
   41      0.00001284047148     0.00003984546814    -0.00193134142113
   42     -0.00000113885158     0.00000380181130    -0.00194275749464
   43      0.00002327830325    -0.00000550960437    -0.00196767919120
   44      0.00001437670279    -0.00002328973449    -0.00184053777411
   45     -0.00000320908849     0.00003992370377    -0.00193856935212
   46     -0.00498573006991     0.05715224898991    -0.05555642652400
   47      0.00524799232571     0.00272699226344    -0.02039777458241
   48     -0.00033007863378     0.00070226433312     0.00030869055134
   49      0.00003164781810     0.00042967026925     0.00027166115099
   50      0.00269346211811    -0.00149657425881     0.00016659891139
   51     -0.00038749391411     0.00005438264933     0.00035930134038
   52     -0.03098990316512    -0.00637974978043    -0.03781578421771
   53      0.00131308065510    -0.00048809321294     0.00041042670499
   54     -0.00299121720630     0.00019459986557    -0.00008021555632
 frms,max,avg= 2.3887445E-02 2.2614298E-01  -2.180E-07  2.770E-07  1.042E-06 e/A
 length scales=  1.000000000000  1.000000000000  1.000000000000 bohr
              =  0.529177208590  0.529177208590  0.529177208590 angstroms
 prteigrs : about to open file abo_EIG
 Fermi (or HOMO) energy (hartree) =   0.24626   Average Vxc (hartree)=  -0.37286
 Eigenvalues (hartree) for nkpt=   5  k points:
 kpt#   1, nband=280, wtk=  0.11111, kpt=  0.0000  0.0000  0.0000 (reduced coord)
  -2.00355   -2.00346   -2.00346   -2.00345   -2.00345   -2.00344   -2.00344   -2.00338
  -2.00337   -2.00337   -2.00336   -2.00336   -2.00335   -2.00335   -2.00325   -2.00325
  -2.00325   -2.00325   -1.05722   -1.05718   -1.05718   -1.05715   -1.05709   -1.05707
  -1.05706   -1.05706   -1.05706   -1.05704   -1.05699   -1.05698   -1.05698   -1.05698
  -1.05697   -1.05695   -1.05573   -1.05572   -1.05556   -1.05555   -1.05416   -1.05395
  -1.05240   -1.05240   -1.05239   -1.05239   -1.05239   -1.05238   -1.05218   -1.05217
  -1.05217   -1.05217   -1.05216   -1.05216   -1.05108   -1.05108   -1.05108   -1.05108
  -1.04916   -1.04914   -1.04914   -1.04914   -1.04913   -1.04912   -1.04891   -1.04890
  -1.04889   -1.04889   -1.04889   -1.04888   -1.04635   -1.04634   -1.04632   -1.04632
  -0.28580   -0.28318   -0.23918   -0.23869   -0.23863   -0.23863   -0.23863   -0.23863
  -0.23858   -0.23670   -0.23665   -0.23665   -0.23664   -0.23664   -0.23659   -0.23461
  -0.21936   -0.21929   -0.21929   -0.21929   -0.21928   -0.21922   -0.21693   -0.21686
  -0.21686   -0.21686   -0.21686   -0.21679   -0.20821   -0.20819   -0.20819   -0.20817
  -0.20490   -0.20484   -0.20484   -0.20477    0.01931    0.03355    0.03358    0.03462
   0.03520    0.03523    0.03762    0.03767    0.03767    0.03768    0.03768    0.03773
   0.04276    0.04280    0.04281    0.04281    0.04282    0.04286    0.06447    0.06448
   0.06448    0.06448    0.07616    0.07618    0.07622    0.07622    0.07626    0.07628
   0.08189    0.08191    0.08196    0.08196    0.08197    0.08201    0.08206    0.08208
   0.08474    0.08478    0.08479    0.08479    0.08479    0.08482    0.08489    0.08490
   0.09342    0.09346    0.09347    0.09347    0.09347    0.09352    0.10119    0.10121
   0.10121    0.10123    0.12607    0.12616    0.12617    0.12618    0.12618    0.12618
   0.12619    0.12619    0.12621    0.12627    0.12670    0.12676    0.12678    0.12678
   0.12680    0.12689    0.13477    0.13480    0.13489    0.13491    0.14804    0.15383
   0.15390    0.15390    0.15397    0.16753    0.16757    0.16759    0.16759    0.16761
   0.16764    0.17483    0.17495    0.17513    0.17523    0.17814    0.17820    0.17821
   0.17822    0.17823    0.17829    0.17946    0.17956    0.17957    0.17957    0.17958
   0.17966    0.18050    0.18058    0.18059    0.18059    0.18061    0.18071    0.19073
   0.19449    0.19455    0.19455    0.19455    0.19456    0.19462    0.19819    0.19824
   0.19825    0.19825    0.19826    0.19832    0.22143    0.22897    0.22902    0.23099
   0.23103    0.24626    0.29069    0.29069    0.29069    0.29069    0.30941    0.30951
   0.30952    0.30952    0.30954    0.30961    0.31034    0.31039    0.31041    0.31041
   0.31043    0.31048    0.31195    0.31200    0.31202    0.31203    0.31205    0.31210
   0.32505    0.32511    0.32514    0.32514    0.32516    0.32523    0.33131    0.33144
   0.33155    0.33167    0.33583    0.33583    0.34013    0.34018    0.34169    0.34174
   0.34730    0.34744    0.34744    0.34744    0.34745    0.34759    0.35178    0.35179
 prteigrs : prtvol=0 or 1, do not print more k-points.
 

--- !EnergyTerms
iteration_state     : {dtset: 1, }
comment             : Components of total free energy in Hartree
kinetic             :  5.36516239841033E+02
hartree             :  6.24014578003256E+02
xc                  : -2.99822476263811E+02
Ewald energy        : -9.09621652045361E+02
psp_core            :  3.92430686932514E+01
local_psp           : -1.86321540965248E+03
non_local_psp       :  2.10177212311701E+02
total_energy        : -1.66270843911241E+03
total_energy_eV     : -4.52445975839492E+04
band_energy         : -1.70333720761634E+02
...

 
 Cartesian components of stress tensor (hartree/bohr^3)
  sigma(1 1)=  6.93745006E-04  sigma(3 2)=  1.05210788E-08
  sigma(2 2)=  6.93424413E-04  sigma(3 1)= -5.97752476E-09
  sigma(3 3)=  6.57858042E-04  sigma(2 1)= -9.15685416E-08
 
-Cartesian components of stress tensor (GPa)         [Pressure= -2.0056E+01 GPa]
- sigma(1 1)=  2.04106793E+01  sigma(3 2)=  3.09540774E-04
- sigma(2 2)=  2.04012472E+01  sigma(3 1)= -1.75864821E-04
- sigma(3 3)=  1.93548486E+01  sigma(2 1)= -2.69403905E-03
 
== END DATASET(S) ==============================================================
================================================================================
  
 -outvars: echo values of variables after computation  --------
-          iomode           1
            acell      1.0000000000E+00  1.0000000000E+00  1.0000000000E+00 Bohr
              amu      9.59400000E+01  3.20660000E+01
           bandpp          14
          chkprim           0
     densfor_pred           6
           diemac      1.20000000E+01
             ecut      2.00000000E+01 Hartree
           etotal     -1.6627084391E+03
            fcart      1.4283213963E-03 -2.4859970201E-03  4.3977811720E-03
                      -1.7131522920E-04  4.7028393988E-05  1.0641883318E-04
                       4.2395099890E-05  1.7751661696E-04  1.0459252498E-04
                      -9.6509360515E-05  7.5289091291E-06  1.0623213075E-04
                       4.5526874809E-05  8.7631130659E-05  1.0462287193E-04
                      -1.5958627263E-05  2.7546942614E-05 -1.9413793103E-05
                       1.1841988340E-04  1.2937567661E-04  1.0699614922E-04
                      -1.5864119376E-05  2.7609590133E-05 -1.9403244168E-05
                      -1.7473631900E-04 -3.7268448591E-05  1.0435264591E-04
                      -7.5476054587E-07 -1.9983359457E-07  5.8208615570E-07
                       5.7105100564E-07  5.4207852929E-07  6.4969302437E-07
                      -1.9349189221E-07  3.9290391860E-07 -2.2252025210E-07
                      -6.1105276837E-07  6.8376304668E-07 -8.2088830998E-08
                       7.7246150409E-07 -1.3694850581E-06 -4.2400290806E-06
                      -2.5177828350E-07  8.8755178945E-07 -1.7877476106E-07
                      -7.2188362635E-07  1.3298339891E-06  1.0166624182E-06
                       8.6041252203E-07  3.8937250087E-07 -4.0375301031E-06
                      -6.4401943175E-07 -5.7603691666E-07 -4.1544944193E-06
                      -1.2889742077E-07  1.8833032007E-07  4.1611033211E-05
                       6.1630390208E-07  1.6319632440E-07  3.6567834532E-05
                       6.4188182276E-07  1.8005134672E-07  3.6856793825E-05
                      -8.1687101550E-07  1.7052601003E-07  3.7156287165E-05
                       2.9816572368E-07 -4.7265996336E-07  3.6289199155E-05
                      -1.3177219136E-08  5.8235663122E-08  3.6925499280E-05
                      -6.4200830469E-07  4.8229305070E-07  3.7016633655E-05
                       2.7670455558E-07 -4.6146903616E-07  3.8899574432E-05
                      -1.0473479823E-07 -4.9170994153E-07  3.6457460966E-05
                      -9.7118668787E-05 -6.2581505030E-05 -4.6945768670E-04
                      -8.7273189662E-04  6.1592208041E-04 -1.1152622324E-03
                      -8.1595364042E-06  1.1573511451E-05 -6.8475220125E-05
                       2.8246384063E-06  6.5458164695E-06 -6.8580589797E-05
                      -5.2732663748E-07 -6.0561089667E-05 -7.1516812916E-05
                      -7.0523785923E-06  3.3347206125E-06 -6.8661840035E-05
                       3.9281252096E-04  4.5094426059E-04 -7.9526480207E-04
                       2.5929059023E-05  5.1195243663E-05 -7.6348596330E-05
                      -4.3165646346E-06 -2.7767591636E-05 -6.6618820773E-05
                      -1.4622015610E-07  2.1144660025E-07 -3.3140586936E-05
                      -4.8364465748E-07 -4.3299937304E-07 -3.7844428778E-05
                      -4.3011335333E-07 -4.9205045203E-07 -3.8110043500E-05
                       2.2049981883E-07 -4.8419122501E-07 -3.8375122008E-05
                       2.4970743466E-07  7.7487105076E-07 -3.7558613973E-05
                      -2.2147139046E-08  7.3933464907E-08 -3.7780621275E-05
                       4.5269096189E-07 -1.0714475523E-07 -3.8265271151E-05
                       2.7958237952E-07 -4.5291326423E-07 -3.5792764037E-05
                      -6.2406840474E-08  7.7639249172E-07 -3.7699174863E-05
                      -9.6957021177E-05  1.1114343813E-03 -1.0804005727E-03
                       1.0205721046E-04  5.3031560660E-05 -3.9667359332E-04
                      -6.4190079762E-06  1.3656868074E-05  6.0030759596E-06
                       6.1545212565E-07  8.3557570928E-06  5.2829687127E-06
                       5.2379503095E-05 -2.9103738083E-05  3.2398332749E-06
                      -7.5355575031E-06  1.0575742386E-06  6.9872991878E-06
                      -6.0265771619E-04 -1.2406639066E-04 -7.3539997951E-04
                       2.5535355324E-05 -9.4919025539E-06  7.9815293185E-06
                      -5.8169918136E-05  3.7843651828E-06 -1.5599443378E-06
-          fftalg         401
           istwfk        2    0    0    0    0
              ixc          11
              kpt      0.00000000E+00  0.00000000E+00  0.00000000E+00
                       3.33333333E-01  0.00000000E+00  0.00000000E+00
                       0.00000000E+00  3.33333333E-01  0.00000000E+00
                       3.33333333E-01  3.33333333E-01  0.00000000E+00
                      -3.33333333E-01  3.33333333E-01  0.00000000E+00
         kptrlatt        3    0    0      0    3    0      0    0    1
          kptrlen      2.56852226E+01
P           mkmem           1
            natom          54
            nband         280
            ngfft          75      75     120
             nkpt           5
    nblock_lobpcg           4
-          npband           5
-           npfft           5
-        np_spkpt           5
            nstep         100
             nsym           1
           ntypat           2
              occ      2.000000  2.000000  2.000000  2.000000  2.000000  2.000000
                       2.000000  2.000000  2.000000  2.000000  2.000000  2.000000
                       2.000000  2.000000  2.000000  2.000000  2.000000  2.000000
                       2.000000  2.000000  2.000000  2.000000  2.000000  2.000000
                       2.000000  2.000000  2.000000  2.000000  2.000000  2.000000
                       2.000000  2.000000  2.000000  2.000000  2.000000  2.000000
                       2.000000  2.000000  2.000000  2.000000  2.000000  2.000000
                       2.000000  2.000000  2.000000  2.000000  2.000000  2.000000
                       2.000000  2.000000  2.000000  2.000000  2.000000  2.000000
                       2.000000  2.000000  2.000000  2.000000  2.000000  2.000000
                       2.000000  2.000000  2.000000  2.000000  2.000000  2.000000
                       2.000000  2.000000  2.000000  2.000000  2.000000  2.000000
                       2.000000  2.000000  2.000000  2.000000  2.000000  2.000000
                       2.000000  2.000000  2.000000  2.000000  2.000000  2.000000
                       2.000000  2.000000  2.000000  2.000000  2.000000  2.000000
                       2.000000  2.000000  2.000000  2.000000  2.000000  2.000000
                       2.000000  2.000000  2.000000  2.000000  2.000000  2.000000
                       2.000000  2.000000  2.000000  2.000000  2.000000  2.000000
                       2.000000  2.000000  2.000000  2.000000  2.000000  2.000000
                       2.000000  2.000000  2.000000  2.000000  2.000000  2.000000
                       2.000000  2.000000  2.000000  2.000000  2.000000  2.000000
                       2.000000  2.000000  2.000000  2.000000  2.000000  2.000000
                       2.000000  2.000000  2.000000  2.000000  2.000000  2.000000
                       2.000000  2.000000  2.000000  2.000000  2.000000  2.000000
                       2.000000  2.000000  2.000000  2.000000  2.000000  2.000000
                       2.000000  2.000000  2.000000  2.000000  2.000000  2.000000
                       2.000000  2.000000  2.000000  2.000000  2.000000  2.000000
                       2.000000  2.000000  2.000000  2.000000  2.000000  2.000000
                       2.000000  2.000000  2.000000  2.000000  2.000000  2.000000
                       2.000000  2.000000  2.000000  2.000000  2.000000  2.000000
                       2.000000  2.000000  2.000000  2.000000  2.000000  2.000000
                       2.000000  2.000000  2.000000  2.000000  2.000000  2.000000
                       2.000000  2.000000  2.000000  2.000000  2.000000  2.000000
                       2.000000  2.000000  2.000000  2.000000  2.000000  2.000000
                       2.000000  2.000000  2.000000  2.000000  2.000000  2.000000
                       2.000000  2.000000  2.000000  2.000000  2.000000  2.000000
                       2.000000  2.000000  2.000000  2.000000  2.000000  2.000000
                       2.000000  2.000000  2.000000  2.000000  2.000000  2.000000
                       2.000000  2.000000  2.000000  2.000000  2.000000  2.000000
                       0.000000  0.000000  0.000000  0.000000  0.000000  0.000000
                       0.000000  0.000000  0.000000  0.000000  0.000000  0.000000
                       0.000000  0.000000  0.000000  0.000000  0.000000  0.000000
                       0.000000  0.000000  0.000000  0.000000  0.000000  0.000000
                       0.000000  0.000000  0.000000  0.000000  0.000000  0.000000
                       0.000000  0.000000  0.000000  0.000000  0.000000  0.000000
                       0.000000  0.000000  0.000000  0.000000  0.000000  0.000000
                       0.000000  0.000000  0.000000  0.000000
           ortalg          -2
        paral_kgb           1
           prtden           0
        prtposcar           1
            prtwf           0
            rprim      9.0560300050E+00 -1.5685504084E+01  0.0000000000E+00
                       9.0560300050E+00  1.5685504084E+01  0.0000000000E+00
                       0.0000000000E+00  0.0000000000E+00  2.5685222633E+01
          spgroup           1
           strten      6.9374500574E-04  6.9342441322E-04  6.5785804168E-04
                       1.0521078830E-08 -5.9775247599E-09 -9.1568541552E-08
           toldfe      1.00000000E-09 Hartree
           tolsym      1.00000000E-08
            typat      1  1  1  1  1  1  1  1  1  1  1  1  1  1  1  1  1  1  2  2
                       2  2  2  2  2  2  2  2  2  2  2  2  2  2  2  2  2  2  2  2
                       2  2  2  2  2  2  2  2  2  2  2  2  2  2
         wfoptalg         114
              wtk        0.11111    0.22222    0.22222    0.22222    0.22222
           xangst      1.5943653171E+00 -9.1698589816E-01  3.3893592248E+00
                       3.1948297860E+00 -3.6890716739E+00  3.3980086037E+00
                       4.7922446790E+00 -6.4558754293E+00  3.3980086037E+00
                       3.1948297860E+00  1.8445358369E+00  3.3980086037E+00
                       4.7922446790E+00 -9.2226791849E-01  3.3980086037E+00
                       6.3896595720E+00 -3.6890716739E+00  3.3980086037E+00
                       4.7922446790E+00  4.6113395923E+00  3.3980086037E+00
                       6.3896595720E+00  1.8445358369E+00  3.3980086037E+00
                       7.9870744650E+00 -9.2226791849E-01  3.3980086037E+00
                       1.5974148930E+00  9.2226791849E-01  1.0194025811E+01
                       3.1948297860E+00 -1.8445358369E+00  1.0194025811E+01
                       4.7922446790E+00 -4.6113395923E+00  1.0194025811E+01
                       3.1948297860E+00  3.6890716739E+00  1.0194025811E+01
                       4.7922446790E+00  9.2226791849E-01  1.0194025811E+01
                       6.3896595720E+00 -1.8445358369E+00  1.0194025811E+01
                       4.7922446790E+00  6.4558754293E+00  1.0194025811E+01
                       6.3896595720E+00  3.6890716739E+00  1.0194025811E+01
                       7.9870744650E+00  9.2226791849E-01  1.0194025811E+01
                       1.5974148930E+00 -9.2226791849E-01  8.6340852357E+00
                       3.1948297860E+00 -3.6890716739E+00  8.6340852357E+00
                       4.7922446790E+00 -6.4558754293E+00  8.6340852357E+00
                       3.1948297860E+00  1.8445358369E+00  8.6340852357E+00
                       4.7922446790E+00 -9.2226791849E-01  8.6340852357E+00
                       6.3896595720E+00 -3.6890716739E+00  8.6340852357E+00
                       4.7922446790E+00  4.6113395923E+00  8.6340852357E+00
                       6.3896595720E+00  1.8445358369E+00  8.6340852357E+00
                       7.9870744650E+00 -9.2226791849E-01  8.6340852357E+00
                       1.5974148930E+00  9.2226791849E-01  4.9579491792E+00
                       3.1948297860E+00 -1.8445358369E+00  4.9579491792E+00
                       4.7922446790E+00 -4.6113395923E+00  4.9579491792E+00
                       3.1948297860E+00  3.6890716739E+00  4.9579491792E+00
                       4.7922446790E+00  9.2226791849E-01  4.9579491792E+00
                       6.3896595720E+00 -1.8445358369E+00  4.9579491792E+00
                       4.7922446790E+00  6.4558754293E+00  4.9579491792E+00
                       6.3896595720E+00  3.6890716739E+00  4.9579491792E+00
                       7.9870744650E+00  9.2226791849E-01  4.9579491792E+00
                       1.5974148930E+00 -9.2226791849E-01  1.1753966387E+01
                       3.1948297860E+00 -3.6890716739E+00  1.1753966387E+01
                       4.7922446790E+00 -6.4558754293E+00  1.1753966387E+01
                       3.1948297860E+00  1.8445358369E+00  1.1753966387E+01
                       4.7922446790E+00 -9.2226791849E-01  1.1753966387E+01
                       6.3896595720E+00 -3.6890716739E+00  1.1753966387E+01
                       4.7922446790E+00  4.6113395923E+00  1.1753966387E+01
                       6.3896595720E+00  1.8445358369E+00  1.1753966387E+01
                       7.9870744650E+00 -9.2226791849E-01  1.1753966387E+01
                       1.5974148930E+00  9.2226791849E-01  1.8380680282E+00
                       3.1948297860E+00 -1.8445358369E+00  1.8380680282E+00
                       4.7922446790E+00 -4.6113395923E+00  1.8380680282E+00
                       3.1948297860E+00  3.6890716739E+00  1.8380680282E+00
                       4.7922446790E+00  9.2226791849E-01  1.8380680282E+00
                       6.3896595720E+00 -1.8445358369E+00  1.8380680282E+00
                       4.7922446790E+00  6.4558754293E+00  1.8380680282E+00
                       6.3896595720E+00  3.6890716739E+00  1.8380680282E+00
                       7.9870744650E+00  9.2226791849E-01  1.8380680282E+00
            xcart      3.0129138052E+00 -1.7328522152E+00  6.4049607009E+00
                       6.0373533367E+00 -6.9713351483E+00  6.4213056582E+00
                       9.0560300050E+00 -1.2199836509E+01  6.4213056582E+00
                       6.0373533367E+00  3.4856675741E+00  6.4213056582E+00
                       9.0560300050E+00 -1.7428337871E+00  6.4213056582E+00
                       1.2074706673E+01 -6.9713351483E+00  6.4213056582E+00
                       9.0560300050E+00  8.7141689353E+00  6.4213056582E+00
                       1.2074706673E+01  3.4856675741E+00  6.4213056582E+00
                       1.5093383342E+01 -1.7428337871E+00  6.4213056582E+00
                       3.0186766683E+00  1.7428337871E+00  1.9263916975E+01
                       6.0373533367E+00 -3.4856675741E+00  1.9263916975E+01
                       9.0560300050E+00 -8.7141689353E+00  1.9263916975E+01
                       6.0373533367E+00  6.9713351483E+00  1.9263916975E+01
                       9.0560300050E+00  1.7428337871E+00  1.9263916975E+01
                       1.2074706673E+01 -3.4856675741E+00  1.9263916975E+01
                       9.0560300050E+00  1.2199836509E+01  1.9263916975E+01
                       1.2074706673E+01  6.9713351483E+00  1.9263916975E+01
                       1.5093383342E+01  1.7428337871E+00  1.9263916975E+01
                       3.0186766683E+00 -1.7428337871E+00  1.6316056503E+01
                       6.0373533367E+00 -6.9713351483E+00  1.6316056503E+01
                       9.0560300050E+00 -1.2199836509E+01  1.6316056503E+01
                       6.0373533367E+00  3.4856675741E+00  1.6316056503E+01
                       9.0560300050E+00 -1.7428337871E+00  1.6316056503E+01
                       1.2074706673E+01 -6.9713351483E+00  1.6316056503E+01
                       9.0560300050E+00  8.7141689353E+00  1.6316056503E+01
                       1.2074706673E+01  3.4856675741E+00  1.6316056503E+01
                       1.5093383342E+01 -1.7428337871E+00  1.6316056503E+01
                       3.0186766683E+00  1.7428337871E+00  9.3691661295E+00
                       6.0373533367E+00 -3.4856675741E+00  9.3691661295E+00
                       9.0560300050E+00 -8.7141689353E+00  9.3691661295E+00
                       6.0373533367E+00  6.9713351483E+00  9.3691661295E+00
                       9.0560300050E+00  1.7428337871E+00  9.3691661295E+00
                       1.2074706673E+01 -3.4856675741E+00  9.3691661295E+00
                       9.0560300050E+00  1.2199836509E+01  9.3691661295E+00
                       1.2074706673E+01  6.9713351483E+00  9.3691661295E+00
                       1.5093383342E+01  1.7428337871E+00  9.3691661295E+00
                       3.0186766683E+00 -1.7428337871E+00  2.2211777446E+01
                       6.0373533367E+00 -6.9713351483E+00  2.2211777446E+01
                       9.0560300050E+00 -1.2199836509E+01  2.2211777446E+01
                       6.0373533367E+00  3.4856675741E+00  2.2211777446E+01
                       9.0560300050E+00 -1.7428337871E+00  2.2211777446E+01
                       1.2074706673E+01 -6.9713351483E+00  2.2211777446E+01
                       9.0560300050E+00  8.7141689353E+00  2.2211777446E+01
                       1.2074706673E+01  3.4856675741E+00  2.2211777446E+01
                       1.5093383342E+01 -1.7428337871E+00  2.2211777446E+01
                       3.0186766683E+00  1.7428337871E+00  3.4734451870E+00
                       6.0373533367E+00 -3.4856675741E+00  3.4734451870E+00
                       9.0560300050E+00 -8.7141689353E+00  3.4734451870E+00
                       6.0373533367E+00  6.9713351483E+00  3.4734451870E+00
                       9.0560300050E+00  1.7428337871E+00  3.4734451870E+00
                       1.2074706673E+01 -3.4856675741E+00  3.4734451870E+00
                       9.0560300050E+00  1.2199836509E+01  3.4734451870E+00
                       1.2074706673E+01  6.9713351483E+00  3.4734451870E+00
                       1.5093383342E+01  1.7428337871E+00  3.4734451870E+00
             xred      2.2158586576E-01  1.1111111111E-01  2.4936364354E-01
                       5.5555555556E-01  1.1111111111E-01  2.5000000000E-01
                       8.8888888889E-01  1.1111111111E-01  2.5000000000E-01
                       2.2222222222E-01  4.4444444444E-01  2.5000000000E-01
                       5.5555555556E-01  4.4444444444E-01  2.5000000000E-01
                       8.8888888889E-01  4.4444444444E-01  2.5000000000E-01
                       2.2222222222E-01  7.7777777778E-01  2.5000000000E-01
                       5.5555555556E-01  7.7777777778E-01  2.5000000000E-01
                       8.8888888889E-01  7.7777777778E-01  2.5000000000E-01
                       1.1111111111E-01  2.2222222222E-01  7.5000000000E-01
                       4.4444444444E-01  2.2222222222E-01  7.5000000000E-01
                       7.7777777778E-01  2.2222222222E-01  7.5000000000E-01
                       1.1111111111E-01  5.5555555556E-01  7.5000000000E-01
                       4.4444444444E-01  5.5555555556E-01  7.5000000000E-01
                       7.7777777778E-01  5.5555555556E-01  7.5000000000E-01
                       1.1111111111E-01  8.8888888889E-01  7.5000000000E-01
                       4.4444444444E-01  8.8888888889E-01  7.5000000000E-01
                       7.7777777778E-01  8.8888888889E-01  7.5000000000E-01
                       2.2222222222E-01  1.1111111111E-01  6.3523126650E-01
                       5.5555555556E-01  1.1111111111E-01  6.3523126650E-01
                       8.8888888889E-01  1.1111111111E-01  6.3523126650E-01
                       2.2222222222E-01  4.4444444444E-01  6.3523126650E-01
                       5.5555555556E-01  4.4444444444E-01  6.3523126650E-01
                       8.8888888889E-01  4.4444444444E-01  6.3523126650E-01
                       2.2222222222E-01  7.7777777778E-01  6.3523126650E-01
                       5.5555555556E-01  7.7777777778E-01  6.3523126650E-01
                       8.8888888889E-01  7.7777777778E-01  6.3523126650E-01
                       1.1111111111E-01  2.2222222222E-01  3.6476873350E-01
                       4.4444444444E-01  2.2222222222E-01  3.6476873350E-01
                       7.7777777778E-01  2.2222222222E-01  3.6476873350E-01
                       1.1111111111E-01  5.5555555556E-01  3.6476873350E-01
                       4.4444444444E-01  5.5555555556E-01  3.6476873350E-01
                       7.7777777778E-01  5.5555555556E-01  3.6476873350E-01
                       1.1111111111E-01  8.8888888889E-01  3.6476873350E-01
                       4.4444444444E-01  8.8888888889E-01  3.6476873350E-01
                       7.7777777778E-01  8.8888888889E-01  3.6476873350E-01
                       2.2222222222E-01  1.1111111111E-01  8.6476873350E-01
                       5.5555555556E-01  1.1111111111E-01  8.6476873350E-01
                       8.8888888889E-01  1.1111111111E-01  8.6476873350E-01
                       2.2222222222E-01  4.4444444444E-01  8.6476873350E-01
                       5.5555555556E-01  4.4444444444E-01  8.6476873350E-01
                       8.8888888889E-01  4.4444444444E-01  8.6476873350E-01
                       2.2222222222E-01  7.7777777778E-01  8.6476873350E-01
                       5.5555555556E-01  7.7777777778E-01  8.6476873350E-01
                       8.8888888889E-01  7.7777777778E-01  8.6476873350E-01
                       1.1111111111E-01  2.2222222222E-01  1.3523126650E-01
                       4.4444444444E-01  2.2222222222E-01  1.3523126650E-01
                       7.7777777778E-01  2.2222222222E-01  1.3523126650E-01
                       1.1111111111E-01  5.5555555556E-01  1.3523126650E-01
                       4.4444444444E-01  5.5555555556E-01  1.3523126650E-01
                       7.7777777778E-01  5.5555555556E-01  1.3523126650E-01
                       1.1111111111E-01  8.8888888889E-01  1.3523126650E-01
                       4.4444444444E-01  8.8888888889E-01  1.3523126650E-01
                       7.7777777778E-01  8.8888888889E-01  1.3523126650E-01
            znucl       42.00000   16.00000
 
================================================================================


- Timing analysis has been suppressed with timopt=0



================================================================================

 Suggested references for the acknowledgment of ABINIT usage.

 The users of ABINIT have little formal obligations with respect to the ABINIT group
 (those specified in the GNU General Public License, http://www.gnu.org/copyleft/gpl.txt).
 However, it is common practice in the scientific literature,
 to acknowledge the efforts of people that have made the research possible.
 In this spirit, please find below suggested citations of work written by ABINIT developers,
 corresponding to implementations inside of ABINIT that you have used in the present run.
 Note also that it will be of great value to readers of publications presenting these results,
 to read papers enabling them to understand the theoretical formalism and details
 of the ABINIT implementation.
 For information on why they are suggested, see also https://docs.abinit.org/theory/acknowledgments.
-
- [1] Large scale ab initio calculations based on three levels of parallelization
- F. Bottin, S. Leroux, A. Knyazev, G. Zerah, Comput. Mat. Science 42, 329, (2008).
- Comment: in case LOBPCG algorithm is used (wfoptalg=4/14/114).
- Strong suggestion to cite this paper in your publications.
- This paper is also available at http://www.arxiv.org/abs/0707.3405
- DOI and bibtex: see https://docs.abinit.org/theory/bibliography/#bottin2008
-
- [2] The Abinit project: Impact, environment and recent developments.
- Computer Phys. Comm. 248, 107042 (2020).
- X.Gonze, B. Amadon, G. Antonius, F.Arnardi, L.Baguet, J.-M.Beuken,
- J.Bieder, F.Bottin, J.Bouchet, E.Bousquet, N.Brouwer, F.Bruneval,
- G.Brunin, T.Cavignac, J.-B. Charraud, Wei Chen, M.Cote, S.Cottenier,
- J.Denier, G.Geneste, Ph.Ghosez, M.Giantomassi, Y.Gillet, O.Gingras,
- D.R.Hamann, G.Hautier, Xu He, N.Helbig, N.Holzwarth, Y.Jia, F.Jollet,
- W.Lafargue-Dit-Hauret, K.Lejaeghere, M.A.L.Marques, A.Martin, C.Martins,
- H.P.C. Miranda, F.Naccarato, K. Persson, G.Petretto, V.Planes, Y.Pouillon,
- S.Prokhorenko, F.Ricci, G.-M.Rignanese, A.H.Romero, M.M.Schmitt, M.Torrent,
- M.J.van Setten, B.Van Troeye, M.J.Verstraete, G.Zerah and J.W.Zwanzig
- Comment: the fifth generic paper describing the ABINIT project.
- Note that a version of this paper, that is not formatted for Computer Phys. Comm. 
- is available at https://www.abinit.org/sites/default/files/ABINIT20.pdf .
- The licence allows the authors to put it on the Web.
- DOI and bibtex: see https://docs.abinit.org/theory/bibliography/#gonze2020
-
- [3] Optimized norm-conserving Vanderbilt pseudopotentials.
- D.R. Hamann, Phys. Rev. B 88, 085117 (2013).
- Comment: Some pseudopotential generated using the ONCVPSP code were used.
- DOI and bibtex: see https://docs.abinit.org/theory/bibliography/#hamann2013
-
- [4] ABINIT: Overview, and focus on selected capabilities
- J. Chem. Phys. 152, 124102 (2020).
- A. Romero, D.C. Allan, B. Amadon, G. Antonius, T. Applencourt, L.Baguet,
- J.Bieder, F.Bottin, J.Bouchet, E.Bousquet, F.Bruneval,
- G.Brunin, D.Caliste, M.Cote,
- J.Denier, C. Dreyer, Ph.Ghosez, M.Giantomassi, Y.Gillet, O.Gingras,
- D.R.Hamann, G.Hautier, F.Jollet, G. Jomard,
- A.Martin, 
- H.P.C. Miranda, F.Naccarato, G.Petretto, N.A. Pike, V.Planes,
- S.Prokhorenko, T. Rangel, F.Ricci, G.-M.Rignanese, M.Royo, M.Stengel, M.Torrent,
- M.J.van Setten, B.Van Troeye, M.J.Verstraete, J.Wiktor, J.W.Zwanziger, and X.Gonze.
- Comment: a global overview of ABINIT, with focus on selected capabilities .
- Note that a version of this paper, that is not formatted for J. Chem. Phys 
- is available at https://www.abinit.org/sites/default/files/ABINIT20_JPC.pdf .
- The licence allows the authors to put it on the Web.
- DOI and bibtex: see https://docs.abinit.org/theory/bibliography/#romero2020
-
- [5] Recent developments in the ABINIT software package.
- Computer Phys. Comm. 205, 106 (2016).
- X.Gonze, F.Jollet, F.Abreu Araujo, D.Adams, B.Amadon, T.Applencourt,
- C.Audouze, J.-M.Beuken, J.Bieder, A.Bokhanchuk, E.Bousquet, F.Bruneval
- D.Caliste, M.Cote, F.Dahm, F.Da Pieve, M.Delaveau, M.Di Gennaro,
- B.Dorado, C.Espejo, G.Geneste, L.Genovese, A.Gerossier, M.Giantomassi,
- Y.Gillet, D.R.Hamann, L.He, G.Jomard, J.Laflamme Janssen, S.Le Roux,
- A.Levitt, A.Lherbier, F.Liu, I.Lukacevic, A.Martin, C.Martins,
- M.J.T.Oliveira, S.Ponce, Y.Pouillon, T.Rangel, G.-M.Rignanese,
- A.H.Romero, B.Rousseau, O.Rubel, A.A.Shukri, M.Stankovski, M.Torrent,
- M.J.Van Setten, B.Van Troeye, M.J.Verstraete, D.Waroquier, J.Wiktor,
- B.Xu, A.Zhou, J.W.Zwanziger.
- Comment: the fourth generic paper describing the ABINIT project.
- Note that a version of this paper, that is not formatted for Computer Phys. Comm. 
- is available at https://www.abinit.org/sites/default/files/ABINIT16.pdf .
- The licence allows the authors to put it on the Web.
- DOI and bibtex: see https://docs.abinit.org/theory/bibliography/#gonze2016
-
- Proc.   0 individual time (sec): cpu=        222.3  wall=        225.5
 
================================================================================
 
 Calculation completed.
.Delivered   0 WARNINGs and   0 COMMENTs to log file.
+Overall time at end (sec) : cpu=      27892.9  wall=      28180.5
