
.Version 9.6.2 of ABINIT 
.(MPI version, prepared for a x86_64_linux_gnu11.2 computer) 

.Copyright (C) 1998-2021 ABINIT group . 
 ABINIT comes with ABSOLUTELY NO WARRANTY.
 It is free software, and you are welcome to redistribute it
 under certain conditions (GNU General Public License,
 see ~abinit/COPYING or http://www.gnu.org/copyleft/gpl.txt).

 ABINIT is a project of the Universite Catholique de Louvain,
 Corning Inc. and other collaborators, see ~abinit/doc/developers/contributors.txt .
 Please read https://docs.abinit.org/theory/acknowledgments for suggested
 acknowledgments of the ABINIT effort.
 For more information, see https://www.abinit.org .

.Starting date : Sun  1 Jun 2025.
- ( at 20h18 )
  
- The starting date is more than 3 years after the initial release
- of this version of ABINIT, namely Nov 2021.
- This version of ABINIT is not supported anymore.
- Action: please, switch to a more recent version of ABINIT.
- input  file    -> ab.in
- output file    -> ab.abo
- root for input  files -> abi
- root for output files -> abo


 DATASET    1 : space group Fd -3 m (#227); Bravais cF (face-center cubic)
================================================================================
 Values of the parameters that define the memory need for DATASET  1.
     intxc =       0    ionmov =       0      iscf =       7    lmnmax =       6
     lnmax =       6     mgfft =      30  mpssoang =       3    mqgrid =    3001
     natom =       2  nloc_mem =       1    nspden =       1   nspinor =       1
    nsppol =       1      nsym =      48    n1xccc =    2501    ntypat =       1
    occopt =       1   xclevel =       2
-    mband =           5        mffmem =           1         mkmem =          11
       mpw =        1108          nfft =       27000          nkpt =          44
================================================================================
P This job should need less than                      10.479 Mbytes of memory.
  Rough estimation (10% accuracy) of disk space for files :
_ WF disk file :      3.721 Mbytes ; DEN or POT disk file :      0.208 Mbytes.
================================================================================


 DATASET    2 : space group Fd -3 m (#227); Bravais cF (face-center cubic)
================================================================================
 Values of the parameters that define the memory need for DATASET  2.
     intxc =       0    ionmov =       0      iscf =      -2    lmnmax =       6
     lnmax =       6     mgfft =      30  mpssoang =       3    mqgrid =    3001
     natom =       2  nloc_mem =       1    nspden =       1   nspinor =       1
    nsppol =       1      nsym =      48    n1xccc =    2501    ntypat =       1
    occopt =       1   xclevel =       2
-    mband =          20        mffmem =           1         mkmem =          86
       mpw =        1108          nfft =       27000          nkpt =         343
================================================================================
P This job should need less than                      37.178 Mbytes of memory.
  Rough estimation (10% accuracy) of disk space for files :
_ WF disk file :    115.982 Mbytes ; DEN or POT disk file :      0.208 Mbytes.
================================================================================


 DATASET    3 : space group Fd -3 m (#227); Bravais cF (face-center cubic)
================================================================================
 Values of the parameters that define the memory need for DATASET  3.
     intxc =       0    ionmov =       0      iscf =      -2    lmnmax =       6
     lnmax =       6     mgfft =      30  mpssoang =       3    mqgrid =    3001
     natom =       2  nloc_mem =       1    nspden =       1   nspinor =       1
    nsppol =       1      nsym =      48    n1xccc =    2501    ntypat =       1
    occopt =       1   xclevel =       2
-    mband =          20        mffmem =           1         mkmem =          50
       mpw =        1117          nfft =       27000          nkpt =         198
================================================================================
P This job should need less than                      24.251 Mbytes of memory.
  Rough estimation (10% accuracy) of disk space for files :
_ WF disk file :     67.497 Mbytes ; DEN or POT disk file :      0.208 Mbytes.
================================================================================

--------------------------------------------------------------------------------
------------- Echo of variables that govern the present computation ------------
--------------------------------------------------------------------------------
-
- outvars: echo of selected default values                                      
-   iomode0 =  0 , fftalg0 =112 , wfoptalg0 =  0
-
- outvars: echo of global parameters not present in the input file              
-  max_nthreads =    0
-
 -outvars: echo values of preprocessed input variables --------
            acell      1.8897261329E+00  1.8897261329E+00  1.8897261329E+00 Bohr
              amu      2.80855000E+01
          chkprim           0
      chksymbreak           0
           diemac      1.20000000E+01
        dosdeltae1     0.00000000E+00 Hartree
        dosdeltae2     2.57193829E-04 Hartree
        dosdeltae3     0.00000000E+00 Hartree
             ecut      1.83746627E+01 Hartree
-          fftalg         112
           getden1          0
           getden2          1
           getden3          1
           getwfk1          0
           getwfk2          1
           getwfk3          1
           iatsph2       1    2
             iscf1          7
             iscf2         -2
             iscf3         -2
           istwfk1       0    0    0    0    0    0    0    0    0    0
                         0    0    0    0    0    0    0    0    0    0
                         0    0    0    0    0    0    0    0    0    0
                         0    0    0    0    0    0    0    0    0    0
                         0    0    0    9
           istwfk3       2    0    0    0    0    0    0    0    0    0
                         0    0    0    0    0    0    0    0    0    0
                         0    0    0    0    0    0    0    0    5    0
                         0    0    0    0    0    0    0    0    0    0
                         0    0    0    0    0    0    0    0    0    0
                       outvar_i_n : Printing only first  50 k-points.
              ixc          11
           jdtset        1    2    3
              kpt1     7.14285714E-02  7.14285714E-02  7.14285714E-02
                       2.14285714E-01  7.14285714E-02  7.14285714E-02
                       3.57142857E-01  7.14285714E-02  7.14285714E-02
                       5.00000000E-01  7.14285714E-02  7.14285714E-02
                      -3.57142857E-01  7.14285714E-02  7.14285714E-02
                      -2.14285714E-01  7.14285714E-02  7.14285714E-02
                      -7.14285714E-02  7.14285714E-02  7.14285714E-02
                       2.14285714E-01  2.14285714E-01  7.14285714E-02
                       3.57142857E-01  2.14285714E-01  7.14285714E-02
                       5.00000000E-01  2.14285714E-01  7.14285714E-02
                      -3.57142857E-01  2.14285714E-01  7.14285714E-02
                      -2.14285714E-01  2.14285714E-01  7.14285714E-02
                      -7.14285714E-02  2.14285714E-01  7.14285714E-02
                       3.57142857E-01  3.57142857E-01  7.14285714E-02
                       5.00000000E-01  3.57142857E-01  7.14285714E-02
                      -3.57142857E-01  3.57142857E-01  7.14285714E-02
                      -2.14285714E-01  3.57142857E-01  7.14285714E-02
                      -7.14285714E-02  3.57142857E-01  7.14285714E-02
                       5.00000000E-01  5.00000000E-01  7.14285714E-02
                      -3.57142857E-01  5.00000000E-01  7.14285714E-02
                      -2.14285714E-01  5.00000000E-01  7.14285714E-02
                      -7.14285714E-02  5.00000000E-01  7.14285714E-02
                      -3.57142857E-01 -3.57142857E-01  7.14285714E-02
                      -2.14285714E-01 -3.57142857E-01  7.14285714E-02
                      -2.14285714E-01 -2.14285714E-01  7.14285714E-02
                       2.14285714E-01  2.14285714E-01  2.14285714E-01
                       3.57142857E-01  2.14285714E-01  2.14285714E-01
                       5.00000000E-01  2.14285714E-01  2.14285714E-01
                      -3.57142857E-01  2.14285714E-01  2.14285714E-01
                      -2.14285714E-01  2.14285714E-01  2.14285714E-01
                       3.57142857E-01  3.57142857E-01  2.14285714E-01
                       5.00000000E-01  3.57142857E-01  2.14285714E-01
                      -3.57142857E-01  3.57142857E-01  2.14285714E-01
                      -2.14285714E-01  3.57142857E-01  2.14285714E-01
                       5.00000000E-01  5.00000000E-01  2.14285714E-01
                      -3.57142857E-01  5.00000000E-01  2.14285714E-01
                      -2.14285714E-01  5.00000000E-01  2.14285714E-01
                      -3.57142857E-01 -3.57142857E-01  2.14285714E-01
                       3.57142857E-01  3.57142857E-01  3.57142857E-01
                       5.00000000E-01  3.57142857E-01  3.57142857E-01
                      -3.57142857E-01  3.57142857E-01  3.57142857E-01
                       5.00000000E-01  5.00000000E-01  3.57142857E-01
                      -3.57142857E-01  5.00000000E-01  3.57142857E-01
                       5.00000000E-01  5.00000000E-01  5.00000000E-01
              kpt2     7.14285714E-02  7.14285714E-02  7.14285714E-02
                       2.14285714E-01  7.14285714E-02  7.14285714E-02
                       3.57142857E-01  7.14285714E-02  7.14285714E-02
                       5.00000000E-01  7.14285714E-02  7.14285714E-02
                      -3.57142857E-01  7.14285714E-02  7.14285714E-02
                      -2.14285714E-01  7.14285714E-02  7.14285714E-02
                      -7.14285714E-02  7.14285714E-02  7.14285714E-02
                       7.14285714E-02  2.14285714E-01  7.14285714E-02
                       2.14285714E-01  2.14285714E-01  7.14285714E-02
                       3.57142857E-01  2.14285714E-01  7.14285714E-02
                       5.00000000E-01  2.14285714E-01  7.14285714E-02
                      -3.57142857E-01  2.14285714E-01  7.14285714E-02
                      -2.14285714E-01  2.14285714E-01  7.14285714E-02
                      -7.14285714E-02  2.14285714E-01  7.14285714E-02
                       7.14285714E-02  3.57142857E-01  7.14285714E-02
                       2.14285714E-01  3.57142857E-01  7.14285714E-02
                       3.57142857E-01  3.57142857E-01  7.14285714E-02
                       5.00000000E-01  3.57142857E-01  7.14285714E-02
                      -3.57142857E-01  3.57142857E-01  7.14285714E-02
                      -2.14285714E-01  3.57142857E-01  7.14285714E-02
                      -7.14285714E-02  3.57142857E-01  7.14285714E-02
                       7.14285714E-02  5.00000000E-01  7.14285714E-02
                       2.14285714E-01  5.00000000E-01  7.14285714E-02
                       3.57142857E-01  5.00000000E-01  7.14285714E-02
                       5.00000000E-01  5.00000000E-01  7.14285714E-02
                      -3.57142857E-01  5.00000000E-01  7.14285714E-02
                      -2.14285714E-01  5.00000000E-01  7.14285714E-02
                      -7.14285714E-02  5.00000000E-01  7.14285714E-02
                       7.14285714E-02 -3.57142857E-01  7.14285714E-02
                       2.14285714E-01 -3.57142857E-01  7.14285714E-02
                       3.57142857E-01 -3.57142857E-01  7.14285714E-02
                       5.00000000E-01 -3.57142857E-01  7.14285714E-02
                      -3.57142857E-01 -3.57142857E-01  7.14285714E-02
                      -2.14285714E-01 -3.57142857E-01  7.14285714E-02
                      -7.14285714E-02 -3.57142857E-01  7.14285714E-02
                       7.14285714E-02 -2.14285714E-01  7.14285714E-02
                       2.14285714E-01 -2.14285714E-01  7.14285714E-02
                       3.57142857E-01 -2.14285714E-01  7.14285714E-02
                       5.00000000E-01 -2.14285714E-01  7.14285714E-02
                      -3.57142857E-01 -2.14285714E-01  7.14285714E-02
                      -2.14285714E-01 -2.14285714E-01  7.14285714E-02
                      -7.14285714E-02 -2.14285714E-01  7.14285714E-02
                       7.14285714E-02 -7.14285714E-02  7.14285714E-02
                       2.14285714E-01 -7.14285714E-02  7.14285714E-02
                       3.57142857E-01 -7.14285714E-02  7.14285714E-02
                       5.00000000E-01 -7.14285714E-02  7.14285714E-02
                      -3.57142857E-01 -7.14285714E-02  7.14285714E-02
                      -2.14285714E-01 -7.14285714E-02  7.14285714E-02
                      -7.14285714E-02 -7.14285714E-02  7.14285714E-02
                       7.14285714E-02  7.14285714E-02  2.14285714E-01
              kpt3     0.00000000E+00  0.00000000E+00  0.00000000E+00
                       1.78571429E-02  0.00000000E+00  1.78571429E-02
                       3.57142857E-02  0.00000000E+00  3.57142857E-02
                       5.35714286E-02  0.00000000E+00  5.35714286E-02
                       7.14285714E-02  0.00000000E+00  7.14285714E-02
                       8.92857143E-02  0.00000000E+00  8.92857143E-02
                       1.07142857E-01  0.00000000E+00  1.07142857E-01
                       1.25000000E-01  0.00000000E+00  1.25000000E-01
                       1.42857143E-01  0.00000000E+00  1.42857143E-01
                       1.60714286E-01  0.00000000E+00  1.60714286E-01
                       1.78571429E-01  0.00000000E+00  1.78571429E-01
                       1.96428571E-01  0.00000000E+00  1.96428571E-01
                       2.14285714E-01  0.00000000E+00  2.14285714E-01
                       2.32142857E-01  0.00000000E+00  2.32142857E-01
                       2.50000000E-01  0.00000000E+00  2.50000000E-01
                       2.67857143E-01  0.00000000E+00  2.67857143E-01
                       2.85714286E-01  0.00000000E+00  2.85714286E-01
                       3.03571429E-01  0.00000000E+00  3.03571429E-01
                       3.21428571E-01  0.00000000E+00  3.21428571E-01
                       3.39285714E-01  0.00000000E+00  3.39285714E-01
                       3.57142857E-01  0.00000000E+00  3.57142857E-01
                       3.75000000E-01  0.00000000E+00  3.75000000E-01
                       3.92857143E-01  0.00000000E+00  3.92857143E-01
                       4.10714286E-01  0.00000000E+00  4.10714286E-01
                       4.28571429E-01  0.00000000E+00  4.28571429E-01
                       4.46428571E-01  0.00000000E+00  4.46428571E-01
                       4.64285714E-01  0.00000000E+00  4.64285714E-01
                       4.82142857E-01  0.00000000E+00  4.82142857E-01
                       5.00000000E-01  0.00000000E+00  5.00000000E-01
                       5.00000000E-01  1.78571429E-02  5.17857143E-01
                       5.00000000E-01  3.57142857E-02  5.35714286E-01
                       5.00000000E-01  5.35714286E-02  5.53571429E-01
                       5.00000000E-01  7.14285714E-02  5.71428571E-01
                       5.00000000E-01  8.92857143E-02  5.89285714E-01
                       5.00000000E-01  1.07142857E-01  6.07142857E-01
                       5.00000000E-01  1.25000000E-01  6.25000000E-01
                       5.00000000E-01  1.42857143E-01  6.42857143E-01
                       5.00000000E-01  1.60714286E-01  6.60714286E-01
                       5.00000000E-01  1.78571429E-01  6.78571429E-01
                       5.00000000E-01  1.96428571E-01  6.96428571E-01
                       5.00000000E-01  2.14285714E-01  7.14285714E-01
                       5.00000000E-01  2.32142857E-01  7.32142857E-01
                       5.00000000E-01  2.50000000E-01  7.50000000E-01
                       4.87500000E-01  2.62500000E-01  7.50000000E-01
                       4.75000000E-01  2.75000000E-01  7.50000000E-01
                       4.62500000E-01  2.87500000E-01  7.50000000E-01
                       4.50000000E-01  3.00000000E-01  7.50000000E-01
                       4.37500000E-01  3.12500000E-01  7.50000000E-01
                       4.25000000E-01  3.25000000E-01  7.50000000E-01
                       4.12500000E-01  3.37500000E-01  7.50000000E-01
                       outvar_i_n : Printing only first  50 k-points.
           kptopt1          1
           kptopt2          3
           kptopt3        -11
         kptrlatt        7    0    0      0    7    0      0    0    7
          kptrlen1     5.20681243E+01
          kptrlen2     5.20681243E+01
          kptrlen3     3.00000000E+01
P           mkmem1         11
P           mkmem2         86
P           mkmem3         50
            natom           2
           natsph2       2
            nband1          5
            nband2         20
            nband3         20
           nbdbuf1          0
           nbdbuf2          2
           nbdbuf3          2
           ndtset           3
           ndivsm1          0
           ndivsm2          0
           ndivsm3         10
            ngfft          30      30      30
             nkpt1         44
             nkpt2        343
             nkpt3        198
            nstep          20
             nsym          48
           ntypat           1
              occ      2.000000  2.000000  2.000000  2.000000  0.000000
           prtden1          1
           prtden2          1
           prtden3          0
           prtdos1          0
           prtdos2          3
           prtdos3          0
          prtdosm1          0
          prtdosm2          1
          prtdosm3          0
           prtelf1          0
           prtelf2          2
           prtelf3          0
            rprim      0.0000000000E+00  2.7833000422E+00  2.7833000422E+00
                       2.7833000422E+00  0.0000000000E+00  2.7833000422E+00
                       2.7833000422E+00  2.7833000422E+00  0.0000000000E+00
           shiftk      5.00000000E-01  5.00000000E-01  5.00000000E-01
          spgroup         227
           symrel      1  0  0   0  1  0   0  0  1      -1  0  0   0 -1  0   0  0 -1
                       0 -1  1   0 -1  0   1 -1  0       0  1 -1   0  1  0  -1  1  0
                      -1  0  0  -1  0  1  -1  1  0       1  0  0   1  0 -1   1 -1  0
                       0  1 -1   1  0 -1   0  0 -1       0 -1  1  -1  0  1   0  0  1
                      -1  0  0  -1  1  0  -1  0  1       1  0  0   1 -1  0   1  0 -1
                       0 -1  1   1 -1  0   0 -1  0       0  1 -1  -1  1  0   0  1  0
                       1  0  0   0  0  1   0  1  0      -1  0  0   0  0 -1   0 -1  0
                       0  1 -1   0  0 -1   1  0 -1       0 -1  1   0  0  1  -1  0  1
                      -1  0  1  -1  1  0  -1  0  0       1  0 -1   1 -1  0   1  0  0
                       0 -1  0   1 -1  0   0 -1  1       0  1  0  -1  1  0   0  1 -1
                       1  0 -1   0  0 -1   0  1 -1      -1  0  1   0  0  1   0 -1  1
                       0  1  0   0  0  1   1  0  0       0 -1  0   0  0 -1  -1  0  0
                       1  0 -1   0  1 -1   0  0 -1      -1  0  1   0 -1  1   0  0  1
                       0 -1  0   0 -1  1   1 -1  0       0  1  0   0  1 -1  -1  1  0
                      -1  0  1  -1  0  0  -1  1  0       1  0 -1   1  0  0   1 -1  0
                       0  1  0   1  0  0   0  0  1       0 -1  0  -1  0  0   0  0 -1
                       0  0 -1   0  1 -1   1  0 -1       0  0  1   0 -1  1  -1  0  1
                       1 -1  0   0 -1  1   0 -1  0      -1  1  0   0  1 -1   0  1  0
                       0  0  1   1  0  0   0  1  0       0  0 -1  -1  0  0   0 -1  0
                      -1  1  0  -1  0  0  -1  0  1       1 -1  0   1  0  0   1  0 -1
                       0  0  1   0  1  0   1  0  0       0  0 -1   0 -1  0  -1  0  0
                       1 -1  0   0 -1  0   0 -1  1      -1  1  0   0  1  0   0  1 -1
                       0  0 -1   1  0 -1   0  1 -1       0  0  1  -1  0  1   0 -1  1
                      -1  1  0  -1  0  1  -1  0  0       1 -1  0   1  0 -1   1  0  0
            tnons      0.0000000  0.0000000  0.0000000     0.2500000  0.2500000  0.2500000
                       0.0000000  0.0000000  0.0000000     0.2500000  0.2500000  0.2500000
                       0.0000000  0.0000000  0.0000000     0.2500000  0.2500000  0.2500000
                       0.0000000  0.0000000  0.0000000     0.2500000  0.2500000  0.2500000
                       0.0000000  0.0000000  0.0000000     0.2500000  0.2500000  0.2500000
                       0.0000000  0.0000000  0.0000000     0.2500000  0.2500000  0.2500000
                       0.0000000  0.0000000  0.0000000     0.2500000  0.2500000  0.2500000
                       0.0000000  0.0000000  0.0000000     0.2500000  0.2500000  0.2500000
                       0.0000000  0.0000000  0.0000000     0.2500000  0.2500000  0.2500000
                       0.0000000  0.0000000  0.0000000     0.2500000  0.2500000  0.2500000
                       0.0000000  0.0000000  0.0000000     0.2500000  0.2500000  0.2500000
                       0.0000000  0.0000000  0.0000000     0.2500000  0.2500000  0.2500000
                       0.0000000  0.0000000  0.0000000     0.2500000  0.2500000  0.2500000
                       0.0000000  0.0000000  0.0000000     0.2500000  0.2500000  0.2500000
                       0.0000000  0.0000000  0.0000000     0.2500000  0.2500000  0.2500000
                       0.0000000  0.0000000  0.0000000     0.2500000  0.2500000  0.2500000
                       0.0000000  0.0000000  0.0000000     0.2500000  0.2500000  0.2500000
                       0.0000000  0.0000000  0.0000000     0.2500000  0.2500000  0.2500000
                       0.0000000  0.0000000  0.0000000     0.2500000  0.2500000  0.2500000
                       0.0000000  0.0000000  0.0000000     0.2500000  0.2500000  0.2500000
                       0.0000000  0.0000000  0.0000000     0.2500000  0.2500000  0.2500000
                       0.0000000  0.0000000  0.0000000     0.2500000  0.2500000  0.2500000
                       0.0000000  0.0000000  0.0000000     0.2500000  0.2500000  0.2500000
                       0.0000000  0.0000000  0.0000000     0.2500000  0.2500000  0.2500000
           toldfe1     1.00000000E-06 Hartree
           toldfe2     0.00000000E+00 Hartree
           toldfe3     0.00000000E+00 Hartree
           tolwfr1     0.00000000E+00
           tolwfr2     1.00000000E-10
           tolwfr3     1.00000000E-08
            typat      1  1
              wtk1       0.00583    0.01749    0.01749    0.01749    0.01749    0.01749
                         0.01749    0.01749    0.03499    0.03499    0.03499    0.03499
                         0.03499    0.01749    0.03499    0.03499    0.03499    0.03499
                         0.01749    0.03499    0.03499    0.01749    0.01749    0.03499
                         0.01749    0.00583    0.01749    0.01749    0.01749    0.01749
                         0.01749    0.03499    0.03499    0.03499    0.01749    0.03499
                         0.01749    0.01749    0.00583    0.01749    0.01749    0.01749
                         0.01749    0.00292
              wtk2       0.00292    0.00292    0.00292    0.00292    0.00292    0.00292
                         0.00292    0.00292    0.00292    0.00292    0.00292    0.00292
                         0.00292    0.00292    0.00292    0.00292    0.00292    0.00292
                         0.00292    0.00292    0.00292    0.00292    0.00292    0.00292
                         0.00292    0.00292    0.00292    0.00292    0.00292    0.00292
                         0.00292    0.00292    0.00292    0.00292    0.00292    0.00292
                         0.00292    0.00292    0.00292    0.00292    0.00292    0.00292
                         0.00292    0.00292    0.00292    0.00292    0.00292    0.00292
                         0.00292    0.00292
              wtk3       1.00000    1.00000    1.00000    1.00000    1.00000    1.00000
                         1.00000    1.00000    1.00000    1.00000    1.00000    1.00000
                         1.00000    1.00000    1.00000    1.00000    1.00000    1.00000
                         1.00000    1.00000    1.00000    1.00000    1.00000    1.00000
                         1.00000    1.00000    1.00000    1.00000    1.00000    1.00000
                         1.00000    1.00000    1.00000    1.00000    1.00000    1.00000
                         1.00000    1.00000    1.00000    1.00000    1.00000    1.00000
                         1.00000    1.00000    1.00000    1.00000    1.00000    1.00000
                         1.00000    1.00000
                       outvars : Printing only first  50 k-points.
           xangst      0.0000000000E+00  0.0000000000E+00  0.0000000000E+00
                       1.3916500211E+00  1.3916500211E+00  1.3916500211E+00
            xcart      0.0000000000E+00  0.0000000000E+00  0.0000000000E+00
                       2.6298374127E+00  2.6298374127E+00  2.6298374127E+00
             xred      0.0000000000E+00  0.0000000000E+00  0.0000000000E+00
                       2.5000000000E-01  2.5000000000E-01  2.5000000000E-01
            znucl       14.00000

================================================================================

 chkinp: Checking input parameters for consistency, jdtset=   1.

 chkinp: Checking input parameters for consistency, jdtset=   2.

 chkinp: Checking input parameters for consistency, jdtset=   3.

================================================================================
== DATASET  1 ==================================================================
-   mpi_nproc: 4, omp_nthreads: -1 (-1 if OMP is not activated)


--- !DatasetInfo
iteration_state: {dtset: 1, }
dimensions: {natom: 2, nkpt: 44, mband: 5, nsppol: 1, nspinor: 1, nspden: 1, mpw: 1108, }
cutoff_energies: {ecut:  18.4, pawecutdg:  -1.0, }
electrons: {nelect:   8.00000000E+00, charge:   0.00000000E+00, occopt:   1.00000000E+00, tsmear:   1.00000000E-02, }
meta: {optdriver: 0, ionmov: 0, optcell: 0, iscf: 7, paral_kgb: 0, }
...

 Exchange-correlation functional for the present dataset will be:
  GGA: Perdew-Burke-Ernzerhof functional - ixc=11
 Citation for XC functional:
  J.P.Perdew, K.Burke, M.Ernzerhof, PRL 77, 3865 (1996)

 Real(R)+Recip(G) space primitive vectors, cartesian coordinates (Bohr,Bohr^-1):
 R(1)=  0.0000000  5.2596748  5.2596748  G(1)= -0.0950629  0.0950629  0.0950629
 R(2)=  5.2596748  0.0000000  5.2596748  G(2)=  0.0950629 -0.0950629  0.0950629
 R(3)=  5.2596748  5.2596748  0.0000000  G(3)=  0.0950629  0.0950629 -0.0950629
 Unit cell volume ucvol=  2.9100917E+02 bohr^3
 Angles (23,13,12)=  6.00000000E+01  6.00000000E+01  6.00000000E+01 degrees

 getcut: wavevector=  0.0000  0.0000  0.0000  ngfft=  30  30  30
         ecut(hartree)=     18.375   => boxcut(ratio)=   2.09245

--- Pseudopotential description ------------------------------------------------
- pspini: atom type   1  psp file is si.psp8
- pspatm: opening atomic psp file    si.psp8
- Si    ONCVPSP-3.2.3.1  r_core=   1.60303   1.72197   1.91712
- 14.00000   4.00000    170510                znucl, zion, pspdat
    8   11    2    4       600   0.00000      pspcod,pspxc,lmax,lloc,mmax,r2well
    5.99000000000000    4.00000000000000    0.00000000000000   rchrg,fchrg,qchrg
     nproj     2     2     2
     extension_switch     1
  pspatm : epsatm=    9.34321699
         --- l  ekb(1:nproj) -->
             0    5.168965    0.829883
             1    2.571282    0.578307
             2   -2.427311   -0.488097
 pspatm: atomic psp has been read  and splines computed

   1.49491472E+02                                ecore*ucvol(ha*bohr**3)
--------------------------------------------------------------------------------

_setup2: Arith. and geom. avg. npw (full set) are    1095.178    1095.163

================================================================================

--- !BeginCycle
iteration_state: {dtset: 1, }
solver: {iscf: 7, nstep: 20, nline: 4, wfoptalg: 0, }
tolerances: {toldfe: 1.00E-06, }
...

     iter   Etot(hartree)      deltaE(h)  residm     vres2
 ETOT  1  -8.4579388549857    -8.458E+00 2.193E-02 4.680E+00
 ETOT  2  -8.4614558187173    -3.517E-03 1.144E-03 8.667E-02
 ETOT  3  -8.4614774934844    -2.167E-05 3.579E-04 5.403E-04
 ETOT  4  -8.4614775678113    -7.433E-08 1.114E-04 2.240E-05
 ETOT  5  -8.4614775709741    -3.163E-09 3.606E-05 4.495E-07

 At SCF step    5, etot is converged : 
  for the second time, diff in etot=  3.163E-09 < toldfe=  1.000E-06

 Cartesian components of stress tensor (hartree/bohr^3)
  sigma(1 1)=  1.42454641E-04  sigma(3 2)=  0.00000000E+00
  sigma(2 2)=  1.42454641E-04  sigma(3 1)=  0.00000000E+00
  sigma(3 3)=  1.42454641E-04  sigma(2 1)=  0.00000000E+00


--- !ResultsGS
iteration_state: {dtset: 1, }
comment   : Summary of ground state results
lattice_vectors:
- [  0.0000000,   5.2596748,   5.2596748, ]
- [  5.2596748,   0.0000000,   5.2596748, ]
- [  5.2596748,   5.2596748,   0.0000000, ]
lattice_lengths: [   7.43830,    7.43830,    7.43830, ]
lattice_angles: [ 60.000,  60.000,  60.000, ] # degrees, (23, 13, 12)
lattice_volume:   2.9100917E+02
convergence: {deltae: -3.163E-09, res2:  4.495E-07, residm:  3.606E-05, diffor: null, }
etotal    :  -8.46147757E+00
entropy   :   0.00000000E+00
fermie    :   1.33414444E-01
cartesian_stress_tensor: # hartree/bohr^3
- [  1.42454641E-04,   0.00000000E+00,   0.00000000E+00, ]
- [  0.00000000E+00,   1.42454641E-04,   0.00000000E+00, ]
- [  0.00000000E+00,   0.00000000E+00,   1.42454641E-04, ]
pressure_GPa:  -4.1912E+00
xred      :
- [  0.0000E+00,   0.0000E+00,   0.0000E+00, Si]
- [  2.5000E-01,   2.5000E-01,   2.5000E-01, Si]
cartesian_forces: # hartree/bohr
- [  9.98285704E-28,  -1.20306226E-27,   1.25425640E-27, ]
- [ -9.98285704E-28,   1.20306226E-27,  -1.25425640E-27, ]
force_length_stats: {min:   2.00426851E-27, max:   2.00426851E-27, mean:   2.00426851E-27, }
...

 Integrated electronic density in atomic spheres:
 ------------------------------------------------
 Atom  Sphere_radius  Integrated_density
    1        2.00000          1.71432401
    2        2.00000          1.73245173
================================================================================

 ----iterations are completed or convergence reached----

 Mean square residual over all n,k,spin=   49.626E-08; max=  36.065E-06
 reduced coordinates (array xred) for    2 atoms
       0.000000000000      0.000000000000      0.000000000000
       0.250000000000      0.250000000000      0.250000000000
 rms dE/dt=  6.9419E-27; max dE/dt=  1.1848E-26; dE/dt below (all hartree)
    1      -0.000000000000     -0.000000000000      0.000000000000
    2      -0.000000000000      0.000000000000      0.000000000000

 cartesian coordinates (angstrom) at end:
    1      0.00000000000000     0.00000000000000     0.00000000000000
    2      1.39165002107500     1.39165002107500     1.39165002107500

 cartesian forces (hartree/bohr) at end:
    1      0.00000000000000    -0.00000000000000     0.00000000000000
    2     -0.00000000000000     0.00000000000000    -0.00000000000000
 frms,max,avg= 1.1571650E-27 1.2542564E-27   0.000E+00  0.000E+00  0.000E+00 h/b

 cartesian forces (eV/Angstrom) at end:
    1      0.00000000000000    -0.00000000000000     0.00000000000000
    2     -0.00000000000000     0.00000000000000    -0.00000000000000
 frms,max,avg= 5.9503810E-26 6.4496452E-26   0.000E+00  0.000E+00  0.000E+00 e/A
 length scales=  1.889726132886  1.889726132886  1.889726132886 bohr
              =  1.000000000000  1.000000000000  1.000000000000 angstroms
 prteigrs : about to open file abo_DS1_EIG
 Fermi (or HOMO) energy (hartree) =   0.13341   Average Vxc (hartree)=  -0.33119
 Eigenvalues (hartree) for nkpt=  44  k points:
 kpt#   1, nband=  5, wtk=  0.00583, kpt=  0.0714  0.0714  0.0714 (reduced coord)
  -0.28210    0.11215    0.13341    0.13341    0.22609
 prteigrs : prtvol=0 or 1, do not print more k-points.


--- !EnergyTerms
iteration_state     : {dtset: 1, }
comment             : Components of total free energy in Hartree
kinetic             :  2.97936833234630E+00
hartree             :  5.80479026658258E-01
xc                  : -3.05145587183547E+00
Ewald energy        : -8.19335525187598E+00
psp_core            :  5.13700202344247E-01
local_psp           : -2.42655488683480E+00
non_local_psp       :  1.13634087822334E+00
total_energy        : -8.46147757097411E+00
total_energy_eV     : -2.30248514206557E+02
band_energy         : -3.31886167750646E-01
...


 Cartesian components of stress tensor (hartree/bohr^3)
  sigma(1 1)=  1.42454641E-04  sigma(3 2)=  0.00000000E+00
  sigma(2 2)=  1.42454641E-04  sigma(3 1)=  0.00000000E+00
  sigma(3 3)=  1.42454641E-04  sigma(2 1)=  0.00000000E+00

-Cartesian components of stress tensor (GPa)         [Pressure= -4.1912E+00 GPa]
- sigma(1 1)=  4.19115954E+00  sigma(3 2)=  0.00000000E+00
- sigma(2 2)=  4.19115954E+00  sigma(3 1)=  0.00000000E+00
- sigma(3 3)=  4.19115954E+00  sigma(2 1)=  0.00000000E+00

================================================================================
== DATASET  2 ==================================================================
-   mpi_nproc: 4, omp_nthreads: -1 (-1 if OMP is not activated)


--- !DatasetInfo
iteration_state: {dtset: 2, }
dimensions: {natom: 2, nkpt: 343, mband: 20, nsppol: 1, nspinor: 1, nspden: 1, mpw: 1108, }
cutoff_energies: {ecut:  18.4, pawecutdg:  -1.0, }
electrons: {nelect:   8.00000000E+00, charge:   0.00000000E+00, occopt:   1.00000000E+00, tsmear:   1.00000000E-02, }
meta: {optdriver: 0, ionmov: 0, optcell: 0, iscf: -2, paral_kgb: 0, }
...

 mkfilename : getwfk/=0, take file _WFK from output of DATASET   1.

 mkfilename : getden/=0, take file _DEN from output of DATASET   1.

 Exchange-correlation functional for the present dataset will be:
  GGA: Perdew-Burke-Ernzerhof functional - ixc=11
 Citation for XC functional:
  J.P.Perdew, K.Burke, M.Ernzerhof, PRL 77, 3865 (1996)

 Real(R)+Recip(G) space primitive vectors, cartesian coordinates (Bohr,Bohr^-1):
 R(1)=  0.0000000  5.2596748  5.2596748  G(1)= -0.0950629  0.0950629  0.0950629
 R(2)=  5.2596748  0.0000000  5.2596748  G(2)=  0.0950629 -0.0950629  0.0950629
 R(3)=  5.2596748  5.2596748  0.0000000  G(3)=  0.0950629  0.0950629 -0.0950629
 Unit cell volume ucvol=  2.9100917E+02 bohr^3
 Angles (23,13,12)=  6.00000000E+01  6.00000000E+01  6.00000000E+01 degrees

 getcut: wavevector=  0.0000  0.0000  0.0000  ngfft=  30  30  30
         ecut(hartree)=     18.375   => boxcut(ratio)=   2.09245
--------------------------------------------------------------------------------

-inwffil : will read wavefunctions from disk file abo_DS1_WFK

================================================================================
 prteigrs : about to open file abo_DS2_EIG
 Non-SCF case, kpt    1 (  0.07143  0.07143  0.07143), residuals and eigenvalues=
  4.40E-12  2.64E-12  2.73E-12  2.50E-12  1.67E-11  3.04E-11  9.06E-11  8.84E-12
  3.19E-11  6.81E-11  5.10E-11  8.54E-11  2.52E-11  6.77E-11  1.93E-11  4.30E-11
  3.11E-11  5.96E-11  9.09E-09  9.99E-09
 -2.8210E-01  1.1215E-01  1.3341E-01  1.3341E-01  2.2608E-01  2.3524E-01
  2.3524E-01  2.5441E-01  4.1226E-01  4.1226E-01  4.2912E-01  5.3288E-01
  5.5631E-01  5.5631E-01  7.0233E-01  9.2250E-01  9.2515E-01  9.2515E-01
  9.7661E-01  9.7661E-01
  prteigrs : nnsclo,ikpt=   20    1 max resid (incl. the buffer)=  9.99018E-09
 prteigrs : prtvol=0 or 1, do not print more k-points.

  prteigrs : nnsclo,ikpt=   20    2 max resid (incl. the buffer)=  3.27909E-08
  prteigrs : nnsclo,ikpt=   20    3 max resid (incl. the buffer)=  4.39338E-07
  prteigrs : nnsclo,ikpt=   20    4 max resid (incl. the buffer)=  2.24040E-08
  prteigrs : nnsclo,ikpt=   20    5 max resid (incl. the buffer)=  1.67922E-07
  prteigrs : nnsclo,ikpt=   20    6 max resid (incl. the buffer)=  2.65992E-08
  prteigrs : nnsclo,ikpt=   20    7 max resid (incl. the buffer)=  2.07939E-10
  prteigrs : nnsclo,ikpt=   20    8 max resid (incl. the buffer)=  2.37687E-08
  prteigrs : nnsclo,ikpt=   20    9 max resid (incl. the buffer)=  3.34766E-08
  prteigrs : nnsclo,ikpt=   20   10 max resid (incl. the buffer)=  1.08500E-07
  prteigrs : nnsclo,ikpt=   20   11 max resid (incl. the buffer)=  4.72950E-06
  prteigrs : nnsclo,ikpt=   20   12 max resid (incl. the buffer)=  6.28314E-07
  prteigrs : nnsclo,ikpt=   20   13 max resid (incl. the buffer)=  4.11506E-07
  prteigrs : nnsclo,ikpt=   20   14 max resid (incl. the buffer)=  8.80429E-08
  prteigrs : nnsclo,ikpt=   20   15 max resid (incl. the buffer)=  1.38537E-07
  prteigrs : nnsclo,ikpt=   20   16 max resid (incl. the buffer)=  7.38138E-07
  prteigrs : nnsclo,ikpt=   20   17 max resid (incl. the buffer)=  6.45310E-05
  prteigrs : nnsclo,ikpt=   20   18 max resid (incl. the buffer)=  2.18438E-07
  prteigrs : nnsclo,ikpt=   20   19 max resid (incl. the buffer)=  7.09008E-05
  prteigrs : nnsclo,ikpt=   20   20 max resid (incl. the buffer)=  1.13523E-07
  prteigrs : nnsclo,ikpt=   20   21 max resid (incl. the buffer)=  7.25463E-06
  prteigrs : nnsclo,ikpt=   20   22 max resid (incl. the buffer)=  2.22140E-09
  prteigrs : nnsclo,ikpt=   20   23 max resid (incl. the buffer)=  9.08454E-06
  prteigrs : nnsclo,ikpt=   20   24 max resid (incl. the buffer)=  1.51750E-06
  prteigrs : nnsclo,ikpt=   20   25 max resid (incl. the buffer)=  3.30195E-05
  prteigrs : nnsclo,ikpt=   20   26 max resid (incl. the buffer)=  8.36570E-09
  prteigrs : nnsclo,ikpt=   20   27 max resid (incl. the buffer)=  2.62610E-05
  prteigrs : nnsclo,ikpt=   20   28 max resid (incl. the buffer)=  5.84648E-10
  prteigrs : nnsclo,ikpt=   20   29 max resid (incl. the buffer)=  1.52580E-05
  prteigrs : nnsclo,ikpt=   20   30 max resid (incl. the buffer)=  1.17413E-07
  prteigrs : nnsclo,ikpt=   20   31 max resid (incl. the buffer)=  8.90537E-05
  prteigrs : nnsclo,ikpt=   20   32 max resid (incl. the buffer)=  1.11643E-08
  prteigrs : nnsclo,ikpt=   20   33 max resid (incl. the buffer)=  3.26270E-04
  prteigrs : nnsclo,ikpt=   20   34 max resid (incl. the buffer)=  4.01630E-07
  prteigrs : nnsclo,ikpt=   20   35 max resid (incl. the buffer)=  4.80773E-06
  prteigrs : nnsclo,ikpt=   20   36 max resid (incl. the buffer)=  4.71416E-07
  prteigrs : nnsclo,ikpt=   20   37 max resid (incl. the buffer)=  2.14984E-07
  prteigrs : nnsclo,ikpt=   20   38 max resid (incl. the buffer)=  5.31356E-05
  prteigrs : nnsclo,ikpt=   20   39 max resid (incl. the buffer)=  5.07136E-06
  prteigrs : nnsclo,ikpt=   20   40 max resid (incl. the buffer)=  9.96163E-06
  prteigrs : nnsclo,ikpt=   20   41 max resid (incl. the buffer)=  1.23328E-06
  prteigrs : nnsclo,ikpt=   20   42 max resid (incl. the buffer)=  6.16800E-09
  prteigrs : nnsclo,ikpt=   20   43 max resid (incl. the buffer)=  3.13212E-10
  prteigrs : nnsclo,ikpt=   20   44 max resid (incl. the buffer)=  2.06674E-08
  prteigrs : nnsclo,ikpt=   20   45 max resid (incl. the buffer)=  1.26032E-05
  prteigrs : nnsclo,ikpt=   20   46 max resid (incl. the buffer)=  5.17171E-10
  prteigrs : nnsclo,ikpt=   20   47 max resid (incl. the buffer)=  4.38721E-06
  prteigrs : nnsclo,ikpt=   20   48 max resid (incl. the buffer)=  8.66544E-09
  prteigrs : nnsclo,ikpt=   20   49 max resid (incl. the buffer)=  2.22977E-10
  prteigrs : nnsclo,ikpt=   20   50 max resid (incl. the buffer)=  1.11498E-06
  prteigrs : nnsclo,ikpt=   20   51 max resid (incl. the buffer)=  1.30202E-08
  prteigrs : nnsclo,ikpt=   20   52 max resid (incl. the buffer)=  4.09625E-07
  prteigrs : nnsclo,ikpt=   20   53 max resid (incl. the buffer)=  5.91481E-06
  prteigrs : nnsclo,ikpt=   20   54 max resid (incl. the buffer)=  7.73050E-08
  prteigrs : nnsclo,ikpt=   20   55 max resid (incl. the buffer)=  3.54910E-06
  prteigrs : nnsclo,ikpt=   20   56 max resid (incl. the buffer)=  3.50443E-09
  prteigrs : nnsclo,ikpt=   20   57 max resid (incl. the buffer)=  2.75834E-08
  prteigrs : nnsclo,ikpt=   20   58 max resid (incl. the buffer)=  2.68771E-06
  prteigrs : nnsclo,ikpt=   20   59 max resid (incl. the buffer)=  3.08594E-10
  prteigrs : nnsclo,ikpt=   20   60 max resid (incl. the buffer)=  4.38237E-06
  prteigrs : nnsclo,ikpt=   20   61 max resid (incl. the buffer)=  6.96992E-10
  prteigrs : nnsclo,ikpt=   20   62 max resid (incl. the buffer)=  2.41418E-06
  prteigrs : nnsclo,ikpt=   20   63 max resid (incl. the buffer)=  2.00367E-06
  prteigrs : nnsclo,ikpt=   20   64 max resid (incl. the buffer)=  3.83001E-07
  prteigrs : nnsclo,ikpt=   20   65 max resid (incl. the buffer)=  1.31828E-09
  prteigrs : nnsclo,ikpt=   20   66 max resid (incl. the buffer)=  5.54554E-07
  prteigrs : nnsclo,ikpt=   20   67 max resid (incl. the buffer)=  9.71958E-08
  prteigrs : nnsclo,ikpt=   20   68 max resid (incl. the buffer)=  2.00110E-06
  prteigrs : nnsclo,ikpt=   20   69 max resid (incl. the buffer)=  1.97096E-07
  prteigrs : nnsclo,ikpt=   20   70 max resid (incl. the buffer)=  5.55757E-06
  prteigrs : nnsclo,ikpt=   20   71 max resid (incl. the buffer)=  8.73622E-06
  prteigrs : nnsclo,ikpt=   20   72 max resid (incl. the buffer)=  1.25563E-06
  prteigrs : nnsclo,ikpt=   20   73 max resid (incl. the buffer)=  2.72591E-08
  prteigrs : nnsclo,ikpt=   20   74 max resid (incl. the buffer)=  1.77705E-04
  prteigrs : nnsclo,ikpt=   20   75 max resid (incl. the buffer)=  2.29088E-06
  prteigrs : nnsclo,ikpt=   20   77 max resid (incl. the buffer)=  6.47046E-06
  prteigrs : nnsclo,ikpt=   20   78 max resid (incl. the buffer)=  1.01519E-07
  prteigrs : nnsclo,ikpt=   20   79 max resid (incl. the buffer)=  3.16018E-10
  prteigrs : nnsclo,ikpt=   20   80 max resid (incl. the buffer)=  1.33126E-06
  prteigrs : nnsclo,ikpt=   20   81 max resid (incl. the buffer)=  4.70981E-07
  prteigrs : nnsclo,ikpt=   20   82 max resid (incl. the buffer)=  6.52388E-06
  prteigrs : nnsclo,ikpt=   20   83 max resid (incl. the buffer)=  3.00334E-07
  prteigrs : nnsclo,ikpt=   20   84 max resid (incl. the buffer)=  3.58666E-05
  prteigrs : nnsclo,ikpt=   20   85 max resid (incl. the buffer)=  5.55871E-06
  prteigrs : nnsclo,ikpt=   20   86 max resid (incl. the buffer)=  1.45112E-07
  prteigrs : nnsclo,ikpt=   20   87 max resid (incl. the buffer)=  2.80223E-06
  prteigrs : nnsclo,ikpt=   20   88 max resid (incl. the buffer)=  4.29461E-09
  prteigrs : nnsclo,ikpt=   20   89 max resid (incl. the buffer)=  2.04871E-06
  prteigrs : nnsclo,ikpt=   20   90 max resid (incl. the buffer)=  2.25614E-05
  prteigrs : nnsclo,ikpt=   20   91 max resid (incl. the buffer)=  8.43882E-06
  prteigrs : nnsclo,ikpt=   20   92 max resid (incl. the buffer)=  2.89474E-07
  prteigrs : nnsclo,ikpt=   20   93 max resid (incl. the buffer)=  1.60925E-06
  prteigrs : nnsclo,ikpt=   20   94 max resid (incl. the buffer)=  9.70406E-07
  prteigrs : nnsclo,ikpt=   20   95 max resid (incl. the buffer)=  2.83259E-06
  prteigrs : nnsclo,ikpt=   20   96 max resid (incl. the buffer)=  1.22657E-06
  prteigrs : nnsclo,ikpt=   20   97 max resid (incl. the buffer)=  7.12970E-06
  prteigrs : nnsclo,ikpt=   20   98 max resid (incl. the buffer)=  6.34972E-08
  prteigrs : nnsclo,ikpt=   20   99 max resid (incl. the buffer)=  9.61280E-07
  prteigrs : nnsclo,ikpt=   20  100 max resid (incl. the buffer)=  1.50255E-08
  prteigrs : nnsclo,ikpt=   20  101 max resid (incl. the buffer)=  8.79054E-05
  prteigrs : nnsclo,ikpt=   20  102 max resid (incl. the buffer)=  1.21406E-05
  prteigrs : nnsclo,ikpt=   20  103 max resid (incl. the buffer)=  1.32539E-05
  prteigrs : nnsclo,ikpt=   20  104 max resid (incl. the buffer)=  2.35365E-06
  prteigrs : nnsclo,ikpt=   20  105 max resid (incl. the buffer)=  6.31018E-06
  prteigrs : nnsclo,ikpt=   20  106 max resid (incl. the buffer)=  1.18308E-06
  prteigrs : nnsclo,ikpt=   20  107 max resid (incl. the buffer)=  2.20600E-09
  prteigrs : nnsclo,ikpt=   20  108 max resid (incl. the buffer)=  2.50813E-08
  prteigrs : nnsclo,ikpt=   20  109 max resid (incl. the buffer)=  1.27917E-07
  prteigrs : nnsclo,ikpt=   20  110 max resid (incl. the buffer)=  4.15468E-06
  prteigrs : nnsclo,ikpt=   20  111 max resid (incl. the buffer)=  7.45688E-08
  prteigrs : nnsclo,ikpt=   20  112 max resid (incl. the buffer)=  1.18933E-05
  prteigrs : nnsclo,ikpt=   20  113 max resid (incl. the buffer)=  8.27003E-05
  prteigrs : nnsclo,ikpt=   20  114 max resid (incl. the buffer)=  3.26559E-08
  prteigrs : nnsclo,ikpt=   20  115 max resid (incl. the buffer)=  6.99709E-05
  prteigrs : nnsclo,ikpt=   20  116 max resid (incl. the buffer)=  5.04445E-10
  prteigrs : nnsclo,ikpt=   20  117 max resid (incl. the buffer)=  2.49196E-07
  prteigrs : nnsclo,ikpt=   20  118 max resid (incl. the buffer)=  5.51839E-07
  prteigrs : nnsclo,ikpt=   20  119 max resid (incl. the buffer)=  1.81864E-04
  prteigrs : nnsclo,ikpt=   20  120 max resid (incl. the buffer)=  1.57001E-05
  prteigrs : nnsclo,ikpt=   20  121 max resid (incl. the buffer)=  4.23232E-07
  prteigrs : nnsclo,ikpt=   20  123 max resid (incl. the buffer)=  9.87911E-10
  prteigrs : nnsclo,ikpt=   20  124 max resid (incl. the buffer)=  4.91674E-09
  prteigrs : nnsclo,ikpt=   20  125 max resid (incl. the buffer)=  1.30140E-06
  prteigrs : nnsclo,ikpt=   20  126 max resid (incl. the buffer)=  4.60029E-09
  prteigrs : nnsclo,ikpt=   20  127 max resid (incl. the buffer)=  2.80006E-04
  prteigrs : nnsclo,ikpt=   20  128 max resid (incl. the buffer)=  6.57758E-07
  prteigrs : nnsclo,ikpt=   20  129 max resid (incl. the buffer)=  5.81605E-07
  prteigrs : nnsclo,ikpt=   20  130 max resid (incl. the buffer)=  1.93591E-09
  prteigrs : nnsclo,ikpt=   20  131 max resid (incl. the buffer)=  2.33592E-07
  prteigrs : nnsclo,ikpt=   20  132 max resid (incl. the buffer)=  9.43846E-07
  prteigrs : nnsclo,ikpt=   20  133 max resid (incl. the buffer)=  2.27855E-05
  prteigrs : nnsclo,ikpt=   20  134 max resid (incl. the buffer)=  1.35969E-06
  prteigrs : nnsclo,ikpt=   20  135 max resid (incl. the buffer)=  3.70322E-07
  prteigrs : nnsclo,ikpt=   20  136 max resid (incl. the buffer)=  5.69105E-07
  prteigrs : nnsclo,ikpt=   20  137 max resid (incl. the buffer)=  7.63929E-07
  prteigrs : nnsclo,ikpt=   20  138 max resid (incl. the buffer)=  2.65616E-06
  prteigrs : nnsclo,ikpt=   20  140 max resid (incl. the buffer)=  9.12627E-09
  prteigrs : nnsclo,ikpt=   20  141 max resid (incl. the buffer)=  1.54314E-07
  prteigrs : nnsclo,ikpt=   20  142 max resid (incl. the buffer)=  6.66100E-06
  prteigrs : nnsclo,ikpt=   20  143 max resid (incl. the buffer)=  2.59875E-04
  prteigrs : nnsclo,ikpt=   20  144 max resid (incl. the buffer)=  6.11178E-08
  prteigrs : nnsclo,ikpt=   20  145 max resid (incl. the buffer)=  1.34775E-05
  prteigrs : nnsclo,ikpt=   20  146 max resid (incl. the buffer)=  2.14042E-07
  prteigrs : nnsclo,ikpt=   20  147 max resid (incl. the buffer)=  1.30798E-07
  prteigrs : nnsclo,ikpt=   20  148 max resid (incl. the buffer)=  3.15731E-07
  prteigrs : nnsclo,ikpt=   20  149 max resid (incl. the buffer)=  1.68122E-05
  prteigrs : nnsclo,ikpt=   20  150 max resid (incl. the buffer)=  2.55077E-06
  prteigrs : nnsclo,ikpt=   20  151 max resid (incl. the buffer)=  2.09804E-06
  prteigrs : nnsclo,ikpt=   20  152 max resid (incl. the buffer)=  1.14712E-08
  prteigrs : nnsclo,ikpt=   20  153 max resid (incl. the buffer)=  3.43769E-06
  prteigrs : nnsclo,ikpt=   20  154 max resid (incl. the buffer)=  1.27782E-09
  prteigrs : nnsclo,ikpt=   20  155 max resid (incl. the buffer)=  6.24047E-06
  prteigrs : nnsclo,ikpt=   20  156 max resid (incl. the buffer)=  5.44479E-06
  prteigrs : nnsclo,ikpt=   20  157 max resid (incl. the buffer)=  3.63807E-07
  prteigrs : nnsclo,ikpt=   20  158 max resid (incl. the buffer)=  7.01773E-06
  prteigrs : nnsclo,ikpt=   20  159 max resid (incl. the buffer)=  3.32195E-07
  prteigrs : nnsclo,ikpt=   20  160 max resid (incl. the buffer)=  4.60949E-10
  prteigrs : nnsclo,ikpt=   20  161 max resid (incl. the buffer)=  2.53772E-06
  prteigrs : nnsclo,ikpt=   20  162 max resid (incl. the buffer)=  1.22923E-05
  prteigrs : nnsclo,ikpt=   20  163 max resid (incl. the buffer)=  1.86778E-08
  prteigrs : nnsclo,ikpt=   20  165 max resid (incl. the buffer)=  1.42124E-08
  prteigrs : nnsclo,ikpt=   20  166 max resid (incl. the buffer)=  1.36635E-08
  prteigrs : nnsclo,ikpt=   20  167 max resid (incl. the buffer)=  1.94861E-06
  prteigrs : nnsclo,ikpt=   20  168 max resid (incl. the buffer)=  5.34538E-09
  prteigrs : nnsclo,ikpt=   20  169 max resid (incl. the buffer)=  7.07042E-06
  prteigrs : nnsclo,ikpt=   20  170 max resid (incl. the buffer)=  5.95381E-06
  prteigrs : nnsclo,ikpt=   20  171 max resid (incl. the buffer)=  3.64687E-08
  prteigrs : nnsclo,ikpt=   20  173 max resid (incl. the buffer)=  4.37766E-10
  prteigrs : nnsclo,ikpt=   20  174 max resid (incl. the buffer)=  7.96282E-07
  prteigrs : nnsclo,ikpt=   20  175 max resid (incl. the buffer)=  1.65017E-05
  prteigrs : nnsclo,ikpt=   20  176 max resid (incl. the buffer)=  1.59783E-08
  prteigrs : nnsclo,ikpt=   20  177 max resid (incl. the buffer)=  2.22268E-06
  prteigrs : nnsclo,ikpt=   20  178 max resid (incl. the buffer)=  1.07548E-09
  prteigrs : nnsclo,ikpt=   20  179 max resid (incl. the buffer)=  2.57472E-07
  prteigrs : nnsclo,ikpt=   20  181 max resid (incl. the buffer)=  8.17904E-08
  prteigrs : nnsclo,ikpt=   20  182 max resid (incl. the buffer)=  1.61301E-06
  prteigrs : nnsclo,ikpt=   20  183 max resid (incl. the buffer)=  3.58627E-06
  prteigrs : nnsclo,ikpt=   20  184 max resid (incl. the buffer)=  8.55327E-10
  prteigrs : nnsclo,ikpt=   20  185 max resid (incl. the buffer)=  3.30242E-06
  prteigrs : nnsclo,ikpt=   20  186 max resid (incl. the buffer)=  5.50564E-06
  prteigrs : nnsclo,ikpt=   20  187 max resid (incl. the buffer)=  4.27349E-07
  prteigrs : nnsclo,ikpt=   20  188 max resid (incl. the buffer)=  3.62433E-06
  prteigrs : nnsclo,ikpt=   20  189 max resid (incl. the buffer)=  9.03107E-06
  prteigrs : nnsclo,ikpt=   20  190 max resid (incl. the buffer)=  8.64641E-10
  prteigrs : nnsclo,ikpt=   20  191 max resid (incl. the buffer)=  4.93489E-06
  prteigrs : nnsclo,ikpt=   20  192 max resid (incl. the buffer)=  2.48564E-09
  prteigrs : nnsclo,ikpt=   20  193 max resid (incl. the buffer)=  2.86612E-06
  prteigrs : nnsclo,ikpt=   20  194 max resid (incl. the buffer)=  4.05101E-05
  prteigrs : nnsclo,ikpt=   20  195 max resid (incl. the buffer)=  7.44430E-05
  prteigrs : nnsclo,ikpt=   20  196 max resid (incl. the buffer)=  4.29962E-07
  prteigrs : nnsclo,ikpt=   20  197 max resid (incl. the buffer)=  1.14731E-06
  prteigrs : nnsclo,ikpt=   20  198 max resid (incl. the buffer)=  3.79372E-09
  prteigrs : nnsclo,ikpt=   20  199 max resid (incl. the buffer)=  2.19464E-05
  prteigrs : nnsclo,ikpt=   20  200 max resid (incl. the buffer)=  5.17095E-09
  prteigrs : nnsclo,ikpt=   20  201 max resid (incl. the buffer)=  2.30341E-04
  prteigrs : nnsclo,ikpt=   20  202 max resid (incl. the buffer)=  2.98977E-06
  prteigrs : nnsclo,ikpt=   20  203 max resid (incl. the buffer)=  6.52629E-05
  prteigrs : nnsclo,ikpt=   20  204 max resid (incl. the buffer)=  1.43839E-08
  prteigrs : nnsclo,ikpt=   20  205 max resid (incl. the buffer)=  3.60047E-10
  prteigrs : nnsclo,ikpt=   20  206 max resid (incl. the buffer)=  4.00269E-07
  prteigrs : nnsclo,ikpt=   20  207 max resid (incl. the buffer)=  4.18819E-08
  prteigrs : nnsclo,ikpt=   20  208 max resid (incl. the buffer)=  4.48397E-06
  prteigrs : nnsclo,ikpt=   20  209 max resid (incl. the buffer)=  1.36499E-07
  prteigrs : nnsclo,ikpt=   20  210 max resid (incl. the buffer)=  6.15368E-07
  prteigrs : nnsclo,ikpt=   20  211 max resid (incl. the buffer)=  1.67188E-05
  prteigrs : nnsclo,ikpt=   20  212 max resid (incl. the buffer)=  6.04109E-09
  prteigrs : nnsclo,ikpt=   20  213 max resid (incl. the buffer)=  1.96454E-06
  prteigrs : nnsclo,ikpt=   20  214 max resid (incl. the buffer)=  8.91884E-09
  prteigrs : nnsclo,ikpt=   20  215 max resid (incl. the buffer)=  9.32521E-08
  prteigrs : nnsclo,ikpt=   20  216 max resid (incl. the buffer)=  6.91553E-07
  prteigrs : nnsclo,ikpt=   20  217 max resid (incl. the buffer)=  7.24806E-05
  prteigrs : nnsclo,ikpt=   20  218 max resid (incl. the buffer)=  2.35583E-08
  prteigrs : nnsclo,ikpt=   20  219 max resid (incl. the buffer)=  1.46724E-06
  prteigrs : nnsclo,ikpt=   20  220 max resid (incl. the buffer)=  1.05232E-09
  prteigrs : nnsclo,ikpt=   20  221 max resid (incl. the buffer)=  5.55579E-09
  prteigrs : nnsclo,ikpt=   20  222 max resid (incl. the buffer)=  4.27059E-10
  prteigrs : nnsclo,ikpt=   20  223 max resid (incl. the buffer)=  1.09746E-07
  prteigrs : nnsclo,ikpt=   20  224 max resid (incl. the buffer)=  7.25453E-05
  prteigrs : nnsclo,ikpt=   20  225 max resid (incl. the buffer)=  2.50685E-04
  prteigrs : nnsclo,ikpt=   20  226 max resid (incl. the buffer)=  6.76317E-06
  prteigrs : nnsclo,ikpt=   20  227 max resid (incl. the buffer)=  2.11536E-07
  prteigrs : nnsclo,ikpt=   20  228 max resid (incl. the buffer)=  6.03769E-10
  prteigrs : nnsclo,ikpt=   20  229 max resid (incl. the buffer)=  8.86261E-05
  prteigrs : nnsclo,ikpt=   20  230 max resid (incl. the buffer)=  3.87031E-08
  prteigrs : nnsclo,ikpt=   20  231 max resid (incl. the buffer)=  2.72192E-05
  prteigrs : nnsclo,ikpt=   20  232 max resid (incl. the buffer)=  2.05971E-05
  prteigrs : nnsclo,ikpt=   20  233 max resid (incl. the buffer)=  1.65849E-08
  prteigrs : nnsclo,ikpt=   20  234 max resid (incl. the buffer)=  9.78514E-08
  prteigrs : nnsclo,ikpt=   20  235 max resid (incl. the buffer)=  7.12084E-08
  prteigrs : nnsclo,ikpt=   20  236 max resid (incl. the buffer)=  7.72359E-08
  prteigrs : nnsclo,ikpt=   20  237 max resid (incl. the buffer)=  1.47305E-10
  prteigrs : nnsclo,ikpt=   20  238 max resid (incl. the buffer)=  7.15470E-08
  prteigrs : nnsclo,ikpt=   20  239 max resid (incl. the buffer)=  5.72829E-05
  prteigrs : nnsclo,ikpt=   20  240 max resid (incl. the buffer)=  1.02912E-07
  prteigrs : nnsclo,ikpt=   20  241 max resid (incl. the buffer)=  9.86734E-05
  prteigrs : nnsclo,ikpt=   20  242 max resid (incl. the buffer)=  5.52441E-06
  prteigrs : nnsclo,ikpt=   20  243 max resid (incl. the buffer)=  9.60728E-04
  prteigrs : nnsclo,ikpt=   20  244 max resid (incl. the buffer)=  3.65797E-07
  prteigrs : nnsclo,ikpt=   20  245 max resid (incl. the buffer)=  3.10187E-07
  prteigrs : nnsclo,ikpt=   20  246 max resid (incl. the buffer)=  1.01831E-07
  prteigrs : nnsclo,ikpt=   20  247 max resid (incl. the buffer)=  9.78358E-06
  prteigrs : nnsclo,ikpt=   20  248 max resid (incl. the buffer)=  5.21554E-06
  prteigrs : nnsclo,ikpt=   20  249 max resid (incl. the buffer)=  2.19800E-06
  prteigrs : nnsclo,ikpt=   20  250 max resid (incl. the buffer)=  2.85460E-06
  prteigrs : nnsclo,ikpt=   20  251 max resid (incl. the buffer)=  3.84488E-07
  prteigrs : nnsclo,ikpt=   20  252 max resid (incl. the buffer)=  2.99837E-08
  prteigrs : nnsclo,ikpt=   20  253 max resid (incl. the buffer)=  2.54368E-06
  prteigrs : nnsclo,ikpt=   20  254 max resid (incl. the buffer)=  1.72919E-06
  prteigrs : nnsclo,ikpt=   20  255 max resid (incl. the buffer)=  1.28350E-07
  prteigrs : nnsclo,ikpt=   20  256 max resid (incl. the buffer)=  2.20960E-09
  prteigrs : nnsclo,ikpt=   20  257 max resid (incl. the buffer)=  2.65889E-08
  prteigrs : nnsclo,ikpt=   20  258 max resid (incl. the buffer)=  7.07731E-07
  prteigrs : nnsclo,ikpt=   20  259 max resid (incl. the buffer)=  3.86233E-06
  prteigrs : nnsclo,ikpt=   20  260 max resid (incl. the buffer)=  6.67326E-07
  prteigrs : nnsclo,ikpt=   20  261 max resid (incl. the buffer)=  1.32042E-07
  prteigrs : nnsclo,ikpt=   20  262 max resid (incl. the buffer)=  7.65145E-06
  prteigrs : nnsclo,ikpt=   20  263 max resid (incl. the buffer)=  1.47795E-06
  prteigrs : nnsclo,ikpt=   20  264 max resid (incl. the buffer)=  5.72091E-07
  prteigrs : nnsclo,ikpt=   20  265 max resid (incl. the buffer)=  4.18489E-08
  prteigrs : nnsclo,ikpt=   20  266 max resid (incl. the buffer)=  4.88083E-08
  prteigrs : nnsclo,ikpt=   20  267 max resid (incl. the buffer)=  2.23745E-06
  prteigrs : nnsclo,ikpt=   20  268 max resid (incl. the buffer)=  3.50442E-10
  prteigrs : nnsclo,ikpt=   20  269 max resid (incl. the buffer)=  6.35409E-09
  prteigrs : nnsclo,ikpt=   20  270 max resid (incl. the buffer)=  4.53580E-06
  prteigrs : nnsclo,ikpt=   20  271 max resid (incl. the buffer)=  5.38235E-08
  prteigrs : nnsclo,ikpt=   20  272 max resid (incl. the buffer)=  8.56696E-07
  prteigrs : nnsclo,ikpt=   20  273 max resid (incl. the buffer)=  1.15971E-05
  prteigrs : nnsclo,ikpt=   20  274 max resid (incl. the buffer)=  3.32500E-06
  prteigrs : nnsclo,ikpt=   20  275 max resid (incl. the buffer)=  4.80257E-07
  prteigrs : nnsclo,ikpt=   20  276 max resid (incl. the buffer)=  2.62834E-05
  prteigrs : nnsclo,ikpt=   20  277 max resid (incl. the buffer)=  1.11878E-06
  prteigrs : nnsclo,ikpt=   20  278 max resid (incl. the buffer)=  1.97462E-08
  prteigrs : nnsclo,ikpt=   20  279 max resid (incl. the buffer)=  1.73871E-09
  prteigrs : nnsclo,ikpt=   20  280 max resid (incl. the buffer)=  1.61313E-07
  prteigrs : nnsclo,ikpt=   20  281 max resid (incl. the buffer)=  1.12700E-05
  prteigrs : nnsclo,ikpt=   20  282 max resid (incl. the buffer)=  1.89201E-07
  prteigrs : nnsclo,ikpt=   20  283 max resid (incl. the buffer)=  7.31213E-10
  prteigrs : nnsclo,ikpt=   20  284 max resid (incl. the buffer)=  7.91106E-07
  prteigrs : nnsclo,ikpt=   20  285 max resid (incl. the buffer)=  4.99647E-10
  prteigrs : nnsclo,ikpt=   20  286 max resid (incl. the buffer)=  1.61437E-06
  prteigrs : nnsclo,ikpt=   20  287 max resid (incl. the buffer)=  3.37665E-08
  prteigrs : nnsclo,ikpt=   20  288 max resid (incl. the buffer)=  1.56311E-08
  prteigrs : nnsclo,ikpt=   20  289 max resid (incl. the buffer)=  1.74398E-06
  prteigrs : nnsclo,ikpt=   20  290 max resid (incl. the buffer)=  3.57788E-07
  prteigrs : nnsclo,ikpt=   20  291 max resid (incl. the buffer)=  7.52009E-06
  prteigrs : nnsclo,ikpt=   20  292 max resid (incl. the buffer)=  1.79900E-05
  prteigrs : nnsclo,ikpt=   20  293 max resid (incl. the buffer)=  8.34091E-10
  prteigrs : nnsclo,ikpt=   20  294 max resid (incl. the buffer)=  1.02176E-07
  prteigrs : nnsclo,ikpt=   20  296 max resid (incl. the buffer)=  6.74034E-09
  prteigrs : nnsclo,ikpt=   20  297 max resid (incl. the buffer)=  5.18710E-05
  prteigrs : nnsclo,ikpt=   20  298 max resid (incl. the buffer)=  1.63119E-09
  prteigrs : nnsclo,ikpt=   20  299 max resid (incl. the buffer)=  1.43143E-05
  prteigrs : nnsclo,ikpt=   20  300 max resid (incl. the buffer)=  7.94076E-09
  prteigrs : nnsclo,ikpt=   20  302 max resid (incl. the buffer)=  1.77966E-08
  prteigrs : nnsclo,ikpt=   20  303 max resid (incl. the buffer)=  6.84001E-06
  prteigrs : nnsclo,ikpt=   20  304 max resid (incl. the buffer)=  9.53455E-08
  prteigrs : nnsclo,ikpt=   20  305 max resid (incl. the buffer)=  5.15466E-05
  prteigrs : nnsclo,ikpt=   20  306 max resid (incl. the buffer)=  2.70757E-07
  prteigrs : nnsclo,ikpt=   20  307 max resid (incl. the buffer)=  5.42753E-07
  prteigrs : nnsclo,ikpt=   20  308 max resid (incl. the buffer)=  7.58232E-07
  prteigrs : nnsclo,ikpt=   20  309 max resid (incl. the buffer)=  5.89230E-05
  prteigrs : nnsclo,ikpt=   20  310 max resid (incl. the buffer)=  1.84368E-06
  prteigrs : nnsclo,ikpt=   20  311 max resid (incl. the buffer)=  1.04348E-04
  prteigrs : nnsclo,ikpt=   20  312 max resid (incl. the buffer)=  4.69883E-07
  prteigrs : nnsclo,ikpt=   20  313 max resid (incl. the buffer)=  6.31491E-05
  prteigrs : nnsclo,ikpt=   20  314 max resid (incl. the buffer)=  1.46118E-07
  prteigrs : nnsclo,ikpt=   20  315 max resid (incl. the buffer)=  6.02003E-07
  prteigrs : nnsclo,ikpt=   20  317 max resid (incl. the buffer)=  5.65981E-06
  prteigrs : nnsclo,ikpt=   20  318 max resid (incl. the buffer)=  3.98258E-09
  prteigrs : nnsclo,ikpt=   20  319 max resid (incl. the buffer)=  5.50300E-06
  prteigrs : nnsclo,ikpt=   20  320 max resid (incl. the buffer)=  1.23683E-05
  prteigrs : nnsclo,ikpt=   20  321 max resid (incl. the buffer)=  6.03740E-06
  prteigrs : nnsclo,ikpt=   20  322 max resid (incl. the buffer)=  2.17967E-09
  prteigrs : nnsclo,ikpt=   20  323 max resid (incl. the buffer)=  3.83790E-05
  prteigrs : nnsclo,ikpt=   20  324 max resid (incl. the buffer)=  3.57006E-06
  prteigrs : nnsclo,ikpt=   20  325 max resid (incl. the buffer)=  1.03238E-04
  prteigrs : nnsclo,ikpt=   20  326 max resid (incl. the buffer)=  4.57745E-05
  prteigrs : nnsclo,ikpt=   20  327 max resid (incl. the buffer)=  1.28627E-05
  prteigrs : nnsclo,ikpt=   20  328 max resid (incl. the buffer)=  2.13847E-07
  prteigrs : nnsclo,ikpt=   20  329 max resid (incl. the buffer)=  3.63375E-07
  prteigrs : nnsclo,ikpt=   20  330 max resid (incl. the buffer)=  5.84601E-08
  prteigrs : nnsclo,ikpt=   20  331 max resid (incl. the buffer)=  5.37738E-07
  prteigrs : nnsclo,ikpt=   20  332 max resid (incl. the buffer)=  2.51070E-07
  prteigrs : nnsclo,ikpt=   20  333 max resid (incl. the buffer)=  2.93770E-06
  prteigrs : nnsclo,ikpt=   20  334 max resid (incl. the buffer)=  1.70174E-06
  prteigrs : nnsclo,ikpt=   20  335 max resid (incl. the buffer)=  1.58834E-08
  prteigrs : nnsclo,ikpt=   20  336 max resid (incl. the buffer)=  5.43244E-08
  prteigrs : nnsclo,ikpt=   20  337 max resid (incl. the buffer)=  1.72637E-09
  prteigrs : nnsclo,ikpt=   20  338 max resid (incl. the buffer)=  5.26921E-07
  prteigrs : nnsclo,ikpt=   20  339 max resid (incl. the buffer)=  1.61616E-07
  prteigrs : nnsclo,ikpt=   20  340 max resid (incl. the buffer)=  1.85508E-08
  prteigrs : nnsclo,ikpt=   20  341 max resid (incl. the buffer)=  5.26090E-08
  prteigrs : nnsclo,ikpt=   20  342 max resid (incl. the buffer)=  3.93983E-08
  prteigrs : nnsclo,ikpt=   20  343 max resid (incl. the buffer)=  8.43799E-08


 Compute ELF
--------------------------------------------------------------------------------

 Compute kinetic energy density

 Compute gradient of the electron density
 Electron Localization Function (ELF) [min:0;max:1]
      Maximum=    9.5097E-01  at reduced coord.    0.6000    0.1333    0.1333
      Minimum=    1.7577E-06  at reduced coord.    0.0000    0.0000    0.0000
   Integrated=    1.2352E+02

--------------------------------------------------------------------------------
 End of ELF section

--- !ResultsGS
iteration_state: {dtset: 2, }
comment   : Summary of ground state results
lattice_vectors:
- [  0.0000000,   5.2596748,   5.2596748, ]
- [  5.2596748,   0.0000000,   5.2596748, ]
- [  5.2596748,   5.2596748,   0.0000000, ]
lattice_lengths: [   7.43830,    7.43830,    7.43830, ]
lattice_angles: [ 60.000,  60.000,  60.000, ] # degrees, (23, 13, 12)
lattice_volume:   2.9100917E+02
convergence: {deltae:  0.000E+00, res2:  0.000E+00, residm:  9.996E-11, diffor:  0.000E+00, }
etotal    :  -8.46147757E+00
entropy   :   0.00000000E+00
fermie    :   1.33414444E-01
cartesian_stress_tensor: null
pressure_GPa: null
xred      :
- [  0.0000E+00,   0.0000E+00,   0.0000E+00, Si]
- [  2.5000E-01,   2.5000E-01,   2.5000E-01, Si]
cartesian_forces: null
force_length_stats: {min: null, max: null, mean: null, }
...

 Integrated electronic density in atomic spheres:
 ------------------------------------------------
 Atom  Sphere_radius  Integrated_density
    1        2.00000          1.71432401
    2        2.00000          1.73245173
================================================================================

 ----iterations are completed or convergence reached----

 Mean square residual over all n,k,spin=   39.196E-12; max=  99.957E-12
 reduced coordinates (array xred) for    2 atoms
       0.000000000000      0.000000000000      0.000000000000
       0.250000000000      0.250000000000      0.250000000000

 cartesian coordinates (angstrom) at end:
    1      0.00000000000000     0.00000000000000     0.00000000000000
    2      1.39165002107500     1.39165002107500     1.39165002107500
 length scales=  1.889726132886  1.889726132886  1.889726132886 bohr
              =  1.000000000000  1.000000000000  1.000000000000 angstroms
 prteigrs : about to open file abo_DS2_EIG
 Eigenvalues (hartree) for nkpt= 343  k points:
 kpt#   1, nband= 20, wtk=  0.00292, kpt=  0.0714  0.0714  0.0714 (reduced coord)
  -0.28210    0.11215    0.13341    0.13341    0.22608    0.23524    0.23524    0.25441
   0.41226    0.41226    0.42912    0.53288    0.55631    0.55631    0.70233    0.92250
   0.92515    0.92515    0.97661    0.97661
 prteigrs : prtvol=0 or 1, do not print more k-points.


================================================================================
== DATASET  3 ==================================================================
-   mpi_nproc: 4, omp_nthreads: -1 (-1 if OMP is not activated)


--- !DatasetInfo
iteration_state: {dtset: 3, }
dimensions: {natom: 2, nkpt: 198, mband: 20, nsppol: 1, nspinor: 1, nspden: 1, mpw: 1117, }
cutoff_energies: {ecut:  18.4, pawecutdg:  -1.0, }
electrons: {nelect:   8.00000000E+00, charge:   0.00000000E+00, occopt:   1.00000000E+00, tsmear:   1.00000000E-02, }
meta: {optdriver: 0, ionmov: 0, optcell: 0, iscf: -2, paral_kgb: 0, }
...

 mkfilename : getwfk/=0, take file _WFK from output of DATASET   1.

 mkfilename : getden/=0, take file _DEN from output of DATASET   1.

 Exchange-correlation functional for the present dataset will be:
  GGA: Perdew-Burke-Ernzerhof functional - ixc=11
 Citation for XC functional:
  J.P.Perdew, K.Burke, M.Ernzerhof, PRL 77, 3865 (1996)

 Real(R)+Recip(G) space primitive vectors, cartesian coordinates (Bohr,Bohr^-1):
 R(1)=  0.0000000  5.2596748  5.2596748  G(1)= -0.0950629  0.0950629  0.0950629
 R(2)=  5.2596748  0.0000000  5.2596748  G(2)=  0.0950629 -0.0950629  0.0950629
 R(3)=  5.2596748  5.2596748  0.0000000  G(3)=  0.0950629  0.0950629 -0.0950629
 Unit cell volume ucvol=  2.9100917E+02 bohr^3
 Angles (23,13,12)=  6.00000000E+01  6.00000000E+01  6.00000000E+01 degrees

 getcut: wavevector=  0.0000  0.0000  0.0000  ngfft=  30  30  30
         ecut(hartree)=     18.375   => boxcut(ratio)=   2.09245
--------------------------------------------------------------------------------

-inwffil : will read wavefunctions from disk file abo_DS1_WFK

================================================================================
 prteigrs : about to open file abo_DS3_EIG
 Non-SCF case, kpt    1 (  0.00000  0.00000  0.00000), residuals and eigenvalues=
  2.78E-09  2.03E-09  3.55E-09  7.63E-09  1.75E-09  1.77E-09  2.29E-09  9.27E-09
  9.60E-09  1.77E-09  6.52E-09  3.15E-09  2.09E-09  3.79E-09  8.29E-09  5.45E-09
  9.18E-09  7.18E-09  3.14E-07  1.60E-05
 -2.8440E-01  1.3710E-01  1.3710E-01  1.3710E-01  2.2952E-01  2.2983E-01
  2.2983E-01  2.2983E-01  4.1916E-01  4.1942E-01  4.1942E-01  5.4154E-01
  5.4154E-01  5.4154E-01  6.8656E-01  9.5109E-01  9.5109E-01  9.5109E-01
  9.8715E-01  9.8716E-01
  prteigrs : nnsclo,ikpt=   20    1 max resid (incl. the buffer)=  1.59680E-05
 Non-SCF case, kpt    2 (  0.01786  0.00000  0.01786), residuals and eigenvalues=
  7.20E-09  2.18E-09  2.19E-09  3.28E-09  1.27E-09  1.23E-09  6.58E-09  9.36E-09
  5.88E-09  3.46E-09  4.81E-09  2.70E-09  5.84E-09  4.78E-09  1.63E-09  4.58E-09
  7.03E-09  5.73E-09  4.76E-07  2.07E-07
 -2.8421E-01  1.3543E-01  1.3629E-01  1.3629E-01  2.2935E-01  2.3087E-01
  2.3087E-01  2.3115E-01  4.1783E-01  4.1964E-01  4.2002E-01  5.4188E-01
  5.4188E-01  5.4266E-01  6.8798E-01  9.4761E-01  9.4761E-01  9.5134E-01
  9.8481E-01  9.8481E-01
  prteigrs : nnsclo,ikpt=   20    2 max resid (incl. the buffer)=  4.76191E-07
 Non-SCF case, kpt    3 (  0.03571  0.00000  0.03571), residuals and eigenvalues=
  8.18E-09  4.05E-09  3.07E-09  7.76E-09  8.37E-09  3.98E-09  7.79E-09  4.33E-09
  5.01E-09  4.94E-09  8.18E-09  3.09E-09  4.76E-09  3.15E-09  2.43E-09  4.29E-09
  9.33E-09  8.91E-09  1.04E-06  1.64E-06
 -2.8363E-01  1.3076E-01  1.3398E-01  1.3398E-01  2.2795E-01  2.3389E-01
  2.3389E-01  2.3571E-01  4.1332E-01  4.2029E-01  4.2258E-01  5.4290E-01
  5.4290E-01  5.4579E-01  6.9220E-01  9.3837E-01  9.3837E-01  9.5210E-01
  9.7812E-01  9.7862E-01
  prteigrs : nnsclo,ikpt=   20    3 max resid (incl. the buffer)=  1.64279E-06
 Non-SCF case, kpt    4 (  0.05357  0.00000  0.05357), residuals and eigenvalues=
  8.81E-09  2.71E-09  3.47E-09  7.72E-09  9.11E-09  2.82E-09  4.03E-09  6.85E-09
  3.19E-09  2.67E-09  1.26E-09  3.03E-09  8.31E-09  6.53E-09  2.29E-09  5.81E-09
  4.97E-09  7.90E-09  8.18E-08  3.47E-08
 -2.8267E-01  1.2381E-01  1.3044E-01  1.3044E-01  2.2571E-01  2.3862E-01
  2.3862E-01  2.4240E-01  4.0658E-01  4.2136E-01  4.2676E-01  5.4460E-01
  5.4460E-01  5.5042E-01  6.9911E-01  9.2557E-01  9.2557E-01  9.5337E-01
  9.6790E-01  9.7025E-01
  prteigrs : nnsclo,ikpt=   20    4 max resid (incl. the buffer)=  8.17741E-08
 Non-SCF case, kpt    5 (  0.07143  0.00000  0.07143), residuals and eigenvalues=
  2.35E-09  2.41E-09  1.53E-09  5.86E-09  1.75E-09  3.57E-09  6.40E-09  7.65E-09
  3.63E-09  3.12E-09  1.21E-09  4.05E-09  9.39E-09  7.27E-09  1.80E-09  2.56E-09
  8.52E-09  3.40E-09  8.34E-09  7.01E-09
 -2.8133E-01  1.1531E-01  1.2598E-01  1.2598E-01  2.2275E-01  2.4474E-01
  2.4474E-01  2.5036E-01  3.9842E-01  4.2287E-01  4.3242E-01  5.4698E-01
  5.4698E-01  5.5598E-01  7.0856E-01  9.1080E-01  9.1080E-01  9.5514E-01
  9.5518E-01  9.6054E-01
 Non-SCF case, kpt    6 (  0.08929  0.00000  0.08929), residuals and eigenvalues=
  4.74E-09  5.31E-09  1.00E-09  2.80E-09  2.58E-09  2.60E-09  5.46E-09  2.32E-09
  6.49E-09  2.95E-09  2.64E-09  3.24E-09  8.75E-09  1.69E-09  3.24E-09  2.04E-09
  5.39E-09  7.69E-09  1.07E-07  2.02E-08
 -2.7960E-01  1.0580E-01  1.2091E-01  1.2091E-01  2.1921E-01  2.5193E-01
  2.5193E-01  2.5882E-01  3.8972E-01  4.2482E-01  4.3943E-01  5.5002E-01
  5.5002E-01  5.6207E-01  7.2031E-01  8.9493E-01  8.9493E-01  9.4061E-01
  9.4998E-01  9.5755E-01
  prteigrs : nnsclo,ikpt=   20    6 max resid (incl. the buffer)=  1.07446E-07
 Non-SCF case, kpt    7 (  0.10714  0.00000  0.10714), residuals and eigenvalues=
  7.11E-09  8.78E-09  3.55E-09  4.12E-09  2.55E-09  3.84E-09  5.70E-09  2.61E-09
  9.07E-09  8.40E-09  1.69E-09  3.81E-09  9.58E-09  8.26E-09  5.15E-09  4.38E-09
  9.06E-09  3.16E-09  5.77E-09  6.55E-08
 -2.7749E-01  9.5633E-02  1.1546E-01  1.1546E-01  2.1524E-01  2.5997E-01
  2.5997E-01  2.6704E-01  3.8132E-01  4.2719E-01  4.4762E-01  5.5373E-01
  5.5373E-01  5.6844E-01  7.3408E-01  8.7846E-01  8.7846E-01  9.2491E-01
  9.3884E-01  9.6052E-01
  prteigrs : nnsclo,ikpt=   20    7 max resid (incl. the buffer)=  6.54507E-08
 Non-SCF case, kpt    8 (  0.12500  0.00000  0.12500), residuals and eigenvalues=
  5.85E-09  1.02E-09  1.70E-09  3.05E-09  1.07E-09  2.76E-09  7.45E-09  4.41E-09
  9.27E-09  7.82E-09  5.65E-09  2.18E-09  6.78E-09  3.09E-09  2.60E-09  3.50E-09
  6.20E-09  7.82E-09  3.67E-09  2.88E-08
 -2.7500E-01  8.5046E-02  1.0982E-01  1.0982E-01  2.1096E-01  2.6865E-01
  2.6865E-01  2.7416E-01  3.7421E-01  4.2999E-01  4.5685E-01  5.5809E-01
  5.5809E-01  5.7500E-01  7.4953E-01  8.6170E-01  8.6170E-01  9.0846E-01
  9.2724E-01  9.6414E-01
  prteigrs : nnsclo,ikpt=   20    8 max resid (incl. the buffer)=  2.88404E-08
 Non-SCF case, kpt    9 (  0.14286  0.00000  0.14286), residuals and eigenvalues=
  3.00E-09  2.32E-09  2.37E-09  2.54E-09  7.90E-09  1.00E-09  2.03E-09  5.53E-09
  1.12E-09  8.78E-09  9.33E-09  1.79E-09  3.58E-09  5.49E-09  6.79E-09  3.25E-09
  4.57E-09  4.83E-09  9.99E-09  7.51E-08
 -2.7214E-01  7.4184E-02  1.0412E-01  1.0412E-01  2.0651E-01  2.7785E-01
  2.7785E-01  2.7915E-01  3.6951E-01  4.3323E-01  4.6697E-01  5.6307E-01
  5.6307E-01  5.8174E-01  7.6634E-01  8.4487E-01  8.4487E-01  8.9153E-01
  9.1538E-01  9.6843E-01
  prteigrs : nnsclo,ikpt=   20    9 max resid (incl. the buffer)=  7.51277E-08
 Non-SCF case, kpt   10 (  0.16071  0.00000  0.16071), residuals and eigenvalues=
  2.17E-09  8.98E-09  1.31E-09  4.74E-09  3.86E-09  2.51E-09  1.10E-09  1.85E-09
  4.11E-09  5.08E-09  2.94E-09  1.83E-09  9.86E-09  7.51E-09  4.95E-09  3.59E-09
  4.74E-09  5.62E-09  1.04E-07  2.52E-05
 -2.6890E-01  6.3145E-02  9.8452E-02  9.8452E-02  2.0198E-01  2.8100E-01
  2.8747E-01  2.8747E-01  3.6834E-01  4.3689E-01  4.7787E-01  5.6864E-01
  5.6864E-01  5.8870E-01  7.8418E-01  8.2812E-01  8.2812E-01  8.7438E-01
  9.0331E-01  9.7358E-01
  prteigrs : nnsclo,ikpt=   20   10 max resid (incl. the buffer)=  2.51531E-05
 Non-SCF case, kpt   11 (  0.17857  0.00000  0.17857), residuals and eigenvalues=
  2.35E-09  5.13E-09  1.77E-09  4.01E-09  3.70E-09  3.25E-09  1.14E-09  8.33E-09
  3.93E-09  4.98E-09  3.00E-09  1.92E-09  6.97E-09  6.78E-09  7.42E-09  7.99E-09
  5.68E-09  9.70E-09  5.11E-08  3.90E-05
 -2.6528E-01  5.1992E-02  9.2887E-02  9.2887E-02  1.9747E-01  2.7930E-01
  2.9742E-01  2.9742E-01  3.7116E-01  4.4098E-01  4.8941E-01  5.7477E-01
  5.7477E-01  5.9595E-01  8.0270E-01  8.1162E-01  8.1162E-01  8.5714E-01
  8.9117E-01  9.7967E-01
  prteigrs : nnsclo,ikpt=   20   11 max resid (incl. the buffer)=  3.90016E-05
 Non-SCF case, kpt   12 (  0.19643  0.00000  0.19643), residuals and eigenvalues=
  4.51E-09  9.48E-10  1.65E-09  6.47E-09  3.09E-09  1.72E-09  2.48E-09  4.46E-09
  7.02E-09  3.07E-09  3.71E-09  5.36E-09  7.30E-09  1.59E-09  8.85E-09  8.95E-09
  6.49E-09  4.30E-09  7.92E-08  3.47E-05
 -2.6130E-01  4.0769E-02  8.7479E-02  8.7479E-02  1.9305E-01  2.7457E-01
  3.0765E-01  3.0765E-01  3.7750E-01  4.4550E-01  5.0149E-01  5.8138E-01
  5.8138E-01  6.0355E-01  7.9549E-01  7.9549E-01  8.2159E-01  8.3991E-01
  8.7902E-01  9.8687E-01
  prteigrs : nnsclo,ikpt=   20   12 max resid (incl. the buffer)=  3.46693E-05
 Non-SCF case, kpt   13 (  0.21429  0.00000  0.21429), residuals and eigenvalues=
  5.85E-09  3.40E-09  1.32E-09  5.26E-09  6.65E-09  4.54E-09  4.15E-09  7.59E-09
  1.24E-09  5.94E-09  5.20E-09  3.73E-09  9.45E-09  5.87E-09  4.54E-09  2.77E-09
  4.94E-09  8.60E-09  2.92E-08  3.15E-05
 -2.5694E-01  2.9507E-02  8.2269E-02  8.2269E-02  1.8878E-01  2.6781E-01
  3.1811E-01  3.1811E-01  3.8641E-01  4.5045E-01  5.1398E-01  5.8835E-01
  5.8835E-01  6.1155E-01  7.7988E-01  7.7988E-01  8.2276E-01  8.4045E-01
  8.6695E-01  9.9538E-01
  prteigrs : nnsclo,ikpt=   20   13 max resid (incl. the buffer)=  3.14932E-05
 Non-SCF case, kpt   14 (  0.23214  0.00000  0.23214), residuals and eigenvalues=
  3.87E-09  1.39E-09  1.35E-09  3.22E-09  2.26E-09  1.31E-09  5.30E-09  5.21E-09
  2.93E-09  2.10E-09  7.07E-09  1.87E-09  2.07E-09  8.00E-09  3.32E-09  5.76E-09
  9.47E-09  5.95E-09  7.99E-09  1.39E-04
 -2.5223E-01  1.8230E-02  7.7287E-02  7.7287E-02  1.8472E-01  2.5990E-01
  3.2877E-01  3.2877E-01  3.9699E-01  4.5582E-01  5.2676E-01  5.9553E-01
  5.9553E-01  6.2000E-01  7.6500E-01  7.6500E-01  8.0577E-01  8.5509E-01
  8.5891E-01  1.0056E+00
  prteigrs : nnsclo,ikpt=   20   14 max resid (incl. the buffer)=  1.39053E-04
 Non-SCF case, kpt   15 (  0.25000  0.00000  0.25000), residuals and eigenvalues=
  3.84E-09  3.53E-09  1.87E-09  2.74E-09  3.44E-09  2.15E-09  3.42E-09  5.66E-09
  3.25E-09  1.47E-09  6.43E-09  1.45E-09  3.48E-09  7.73E-09  2.30E-09  8.86E-09
  5.90E-09  4.00E-09  1.82E-08  2.93E-04
 -2.4715E-01  6.9588E-03  7.2557E-02  7.2557E-02  1.8091E-01  2.5147E-01
  3.3960E-01  3.3960E-01  4.0866E-01  4.6163E-01  5.3970E-01  6.0264E-01
  6.0264E-01  6.2897E-01  7.5114E-01  7.5114E-01  7.8898E-01  8.4355E-01
  8.7660E-01  1.0182E+00
  prteigrs : nnsclo,ikpt=   20   15 max resid (incl. the buffer)=  2.93454E-04
 Non-SCF case, kpt   16 (  0.26786  0.00000  0.26786), residuals and eigenvalues=
  4.44E-09  1.74E-09  2.60E-09  3.61E-09  5.28E-09  2.22E-09  2.30E-09  3.80E-09
  2.76E-09  6.23E-09  4.45E-09  1.15E-09  5.38E-09  4.22E-09  4.64E-09  9.14E-09
  2.03E-09  9.61E-09  6.32E-08  3.75E-04
 -2.4172E-01 -4.2914E-03  6.8099E-02  6.8099E-02  1.7739E-01  2.4291E-01
  3.5058E-01  3.5058E-01  4.2101E-01  4.6785E-01  5.5262E-01  6.0924E-01
  6.0924E-01  6.3847E-01  7.3876E-01  7.3876E-01  7.7242E-01  8.3249E-01
  8.9317E-01  1.0350E+00
  prteigrs : nnsclo,ikpt=   20   16 max resid (incl. the buffer)=  3.74561E-04
 Non-SCF case, kpt   17 (  0.28571  0.00000  0.28571), residuals and eigenvalues=
  5.66E-09  7.36E-09  3.33E-09  5.17E-09  6.60E-09  2.17E-09  1.66E-09  3.62E-09
  2.29E-09  3.61E-09  4.51E-09  9.20E-10  6.81E-09  4.43E-09  4.45E-09  8.03E-09
  5.71E-09  7.05E-09  1.19E-07  2.64E-04
 -2.3595E-01 -1.5506E-02  6.3929E-02  6.3929E-02  1.7419E-01  2.3446E-01
  3.6169E-01  3.6169E-01  4.3379E-01  4.7451E-01  5.6531E-01  6.1464E-01
  6.1464E-01  6.4855E-01  7.2857E-01  7.2857E-01  7.5613E-01  8.2210E-01
  9.0838E-01  1.0419E+00
  prteigrs : nnsclo,ikpt=   20   17 max resid (incl. the buffer)=  2.64098E-04
 Non-SCF case, kpt   18 (  0.30357  0.00000  0.30357), residuals and eigenvalues=
  5.03E-09  3.85E-09  1.36E-09  3.43E-09  3.53E-09  5.95E-09  6.58E-09  3.51E-09
  2.22E-09  4.44E-09  4.15E-09  1.98E-09  7.96E-09  2.76E-09  1.42E-09  9.07E-09
  3.89E-09  7.46E-09  2.39E-07  5.50E-04
 -2.2982E-01 -2.6669E-02  6.0058E-02  6.0058E-02  1.7133E-01  2.2627E-01
  3.7292E-01  3.7292E-01  4.4684E-01  4.8159E-01  5.7751E-01  6.1787E-01
  6.1787E-01  6.5922E-01  7.2153E-01  7.2153E-01  7.4014E-01  8.1264E-01
  9.2214E-01  1.0298E+00
  prteigrs : nnsclo,ikpt=   20   18 max resid (incl. the buffer)=  5.50421E-04
 Non-SCF case, kpt   19 (  0.32143  0.00000  0.32143), residuals and eigenvalues=
  5.20E-09  8.40E-09  8.44E-10  2.97E-09  3.56E-09  5.95E-09  2.62E-09  7.15E-09
  2.11E-09  3.94E-09  4.91E-09  2.11E-09  4.33E-09  3.84E-09  1.59E-09  9.27E-09
  2.98E-09  8.45E-09  1.22E-06  4.85E-04
 -2.2336E-01 -3.7768E-02  5.6497E-02  5.6497E-02  1.6885E-01  2.1846E-01
  3.8425E-01  3.8425E-01  4.6003E-01  4.8909E-01  5.8886E-01  6.1792E-01
  6.1792E-01  6.7051E-01  7.1867E-01  7.1867E-01  7.2444E-01  8.0443E-01
  9.3450E-01  1.0158E+00
  prteigrs : nnsclo,ikpt=   20   19 max resid (incl. the buffer)=  4.85145E-04
 Non-SCF case, kpt   20 (  0.33929  0.00000  0.33929), residuals and eigenvalues=
  3.51E-09  2.91E-09  3.47E-09  5.52E-09  3.30E-09  1.03E-09  5.84E-09  8.62E-09
  1.25E-09  5.26E-09  4.36E-09  2.36E-09  5.77E-09  1.06E-09  3.34E-09  3.70E-09
  7.94E-09  8.92E-09  3.85E-05  3.75E-04
 -2.1657E-01 -4.8789E-02  5.3254E-02  5.3254E-02  1.6676E-01  2.1108E-01
  3.9566E-01  3.9566E-01  4.7328E-01  4.9701E-01  5.9893E-01  6.1429E-01
  6.1429E-01  6.8242E-01  7.0907E-01  7.2047E-01  7.2047E-01  7.9788E-01
  9.4559E-01  9.9994E-01
  prteigrs : nnsclo,ikpt=   20   20 max resid (incl. the buffer)=  3.75257E-04
 Non-SCF case, kpt   21 (  0.35714  0.00000  0.35714), residuals and eigenvalues=
  1.98E-09  6.68E-09  1.65E-09  6.54E-09  3.06E-09  7.30E-09  2.39E-09  9.93E-09
  4.22E-09  5.92E-09  2.85E-09  3.68E-09  6.55E-09  1.61E-09  2.21E-09  5.00E-09
  8.35E-09  8.79E-09  5.30E-04  1.77E-03
 -2.0945E-01 -5.9715E-02  5.0337E-02  5.0337E-02  1.6507E-01  2.0418E-01
  4.0715E-01  4.0715E-01  4.8649E-01  5.0536E-01  6.0718E-01  6.0742E-01
  6.0742E-01  6.9404E-01  6.9493E-01  7.2651E-01  7.2651E-01  7.9343E-01
  9.5653E-01  9.8990E-01
  prteigrs : nnsclo,ikpt=   20   21 max resid (incl. the buffer)=  1.77414E-03
 Non-SCF case, kpt   22 (  0.37500  0.00000  0.37500), residuals and eigenvalues=
  1.14E-09  2.57E-09  3.26E-09  6.18E-09  2.87E-09  5.63E-09  1.46E-09  1.95E-09
  4.12E-09  7.97E-09  1.41E-09  9.84E-09  4.55E-09  3.23E-09  3.88E-09  3.46E-09
  8.09E-09  9.75E-09  9.83E-05  4.70E-04
 -2.0201E-01 -7.0531E-02  4.7751E-02  4.7751E-02  1.6382E-01  1.9779E-01
  4.1868E-01  4.1868E-01  4.9961E-01  5.1412E-01  5.9826E-01  5.9826E-01
  6.1309E-01  6.7936E-01  7.0805E-01  7.3584E-01  7.3584E-01  7.9159E-01
  9.6494E-01  9.8286E-01
[...]
                       2.14285714E-01 -3.57142857E-01  7.14285714E-02
                       3.57142857E-01 -3.57142857E-01  7.14285714E-02
                       5.00000000E-01 -3.57142857E-01  7.14285714E-02
                      -3.57142857E-01 -3.57142857E-01  7.14285714E-02
                      -2.14285714E-01 -3.57142857E-01  7.14285714E-02
                      -7.14285714E-02 -3.57142857E-01  7.14285714E-02
                       7.14285714E-02 -2.14285714E-01  7.14285714E-02
                       2.14285714E-01 -2.14285714E-01  7.14285714E-02
                       3.57142857E-01 -2.14285714E-01  7.14285714E-02
                       5.00000000E-01 -2.14285714E-01  7.14285714E-02
                      -3.57142857E-01 -2.14285714E-01  7.14285714E-02
                      -2.14285714E-01 -2.14285714E-01  7.14285714E-02
                      -7.14285714E-02 -2.14285714E-01  7.14285714E-02
                       7.14285714E-02 -7.14285714E-02  7.14285714E-02
                       2.14285714E-01 -7.14285714E-02  7.14285714E-02
                       3.57142857E-01 -7.14285714E-02  7.14285714E-02
                       5.00000000E-01 -7.14285714E-02  7.14285714E-02
                      -3.57142857E-01 -7.14285714E-02  7.14285714E-02
                      -2.14285714E-01 -7.14285714E-02  7.14285714E-02
                      -7.14285714E-02 -7.14285714E-02  7.14285714E-02
                       7.14285714E-02  7.14285714E-02  2.14285714E-01
              kpt3     0.00000000E+00  0.00000000E+00  0.00000000E+00
                       1.78571429E-02  0.00000000E+00  1.78571429E-02
                       3.57142857E-02  0.00000000E+00  3.57142857E-02
                       5.35714286E-02  0.00000000E+00  5.35714286E-02
                       7.14285714E-02  0.00000000E+00  7.14285714E-02
                       8.92857143E-02  0.00000000E+00  8.92857143E-02
                       1.07142857E-01  0.00000000E+00  1.07142857E-01
                       1.25000000E-01  0.00000000E+00  1.25000000E-01
                       1.42857143E-01  0.00000000E+00  1.42857143E-01
                       1.60714286E-01  0.00000000E+00  1.60714286E-01
                       1.78571429E-01  0.00000000E+00  1.78571429E-01
                       1.96428571E-01  0.00000000E+00  1.96428571E-01
                       2.14285714E-01  0.00000000E+00  2.14285714E-01
                       2.32142857E-01  0.00000000E+00  2.32142857E-01
                       2.50000000E-01  0.00000000E+00  2.50000000E-01
                       2.67857143E-01  0.00000000E+00  2.67857143E-01
                       2.85714286E-01  0.00000000E+00  2.85714286E-01
                       3.03571429E-01  0.00000000E+00  3.03571429E-01
                       3.21428571E-01  0.00000000E+00  3.21428571E-01
                       3.39285714E-01  0.00000000E+00  3.39285714E-01
                       3.57142857E-01  0.00000000E+00  3.57142857E-01
                       3.75000000E-01  0.00000000E+00  3.75000000E-01
                       3.92857143E-01  0.00000000E+00  3.92857143E-01
                       4.10714286E-01  0.00000000E+00  4.10714286E-01
                       4.28571429E-01  0.00000000E+00  4.28571429E-01
                       4.46428571E-01  0.00000000E+00  4.46428571E-01
                       4.64285714E-01  0.00000000E+00  4.64285714E-01
                       4.82142857E-01  0.00000000E+00  4.82142857E-01
                       5.00000000E-01  0.00000000E+00  5.00000000E-01
                       5.00000000E-01  1.78571429E-02  5.17857143E-01
                       5.00000000E-01  3.57142857E-02  5.35714286E-01
                       5.00000000E-01  5.35714286E-02  5.53571429E-01
                       5.00000000E-01  7.14285714E-02  5.71428571E-01
                       5.00000000E-01  8.92857143E-02  5.89285714E-01
                       5.00000000E-01  1.07142857E-01  6.07142857E-01
                       5.00000000E-01  1.25000000E-01  6.25000000E-01
                       5.00000000E-01  1.42857143E-01  6.42857143E-01
                       5.00000000E-01  1.60714286E-01  6.60714286E-01
                       5.00000000E-01  1.78571429E-01  6.78571429E-01
                       5.00000000E-01  1.96428571E-01  6.96428571E-01
                       5.00000000E-01  2.14285714E-01  7.14285714E-01
                       5.00000000E-01  2.32142857E-01  7.32142857E-01
                       5.00000000E-01  2.50000000E-01  7.50000000E-01
                       4.87500000E-01  2.62500000E-01  7.50000000E-01
                       4.75000000E-01  2.75000000E-01  7.50000000E-01
                       4.62500000E-01  2.87500000E-01  7.50000000E-01
                       4.50000000E-01  3.00000000E-01  7.50000000E-01
                       4.37500000E-01  3.12500000E-01  7.50000000E-01
                       4.25000000E-01  3.25000000E-01  7.50000000E-01
                       4.12500000E-01  3.37500000E-01  7.50000000E-01
                       outvar_i_n : Printing only first  50 k-points.
           kptopt1          1
           kptopt2          3
           kptopt3        -11
         kptrlatt        7    0    0      0    7    0      0    0    7
          kptrlen1     5.20681243E+01
          kptrlen2     5.20681243E+01
          kptrlen3     3.00000000E+01
P           mkmem1         11
P           mkmem2         86
P           mkmem3         50
            natom           2
           natsph2       2
            nband1          5
            nband2         20
            nband3         20
           nbdbuf1          0
           nbdbuf2          2
           nbdbuf3          2
           ndtset           3
           ndivsm1          0
           ndivsm2          0
           ndivsm3         10
            ngfft          30      30      30
             nkpt1         44
             nkpt2        343
             nkpt3        198
            nstep          20
             nsym          48
           ntypat           1
              occ      2.000000  2.000000  2.000000  2.000000  0.000000
           prtden1          1
           prtden2          1
           prtden3          0
           prtdos1          0
           prtdos2          3
           prtdos3          0
          prtdosm1          0
          prtdosm2          1
          prtdosm3          0
           prtelf1          0
           prtelf2          2
           prtelf3          0
            rprim      0.0000000000E+00  2.7833000422E+00  2.7833000422E+00
                       2.7833000422E+00  0.0000000000E+00  2.7833000422E+00
                       2.7833000422E+00  2.7833000422E+00  0.0000000000E+00
           shiftk      5.00000000E-01  5.00000000E-01  5.00000000E-01
          spgroup         227
           strten1     1.4245464120E-04  1.4245464120E-04  1.4245464120E-04
                       0.0000000000E+00  0.0000000000E+00  0.0000000000E+00
           symrel      1  0  0   0  1  0   0  0  1      -1  0  0   0 -1  0   0  0 -1
                       0 -1  1   0 -1  0   1 -1  0       0  1 -1   0  1  0  -1  1  0
                      -1  0  0  -1  0  1  -1  1  0       1  0  0   1  0 -1   1 -1  0
                       0  1 -1   1  0 -1   0  0 -1       0 -1  1  -1  0  1   0  0  1
                      -1  0  0  -1  1  0  -1  0  1       1  0  0   1 -1  0   1  0 -1
                       0 -1  1   1 -1  0   0 -1  0       0  1 -1  -1  1  0   0  1  0
                       1  0  0   0  0  1   0  1  0      -1  0  0   0  0 -1   0 -1  0
                       0  1 -1   0  0 -1   1  0 -1       0 -1  1   0  0  1  -1  0  1
                      -1  0  1  -1  1  0  -1  0  0       1  0 -1   1 -1  0   1  0  0
                       0 -1  0   1 -1  0   0 -1  1       0  1  0  -1  1  0   0  1 -1
                       1  0 -1   0  0 -1   0  1 -1      -1  0  1   0  0  1   0 -1  1
                       0  1  0   0  0  1   1  0  0       0 -1  0   0  0 -1  -1  0  0
                       1  0 -1   0  1 -1   0  0 -1      -1  0  1   0 -1  1   0  0  1
                       0 -1  0   0 -1  1   1 -1  0       0  1  0   0  1 -1  -1  1  0
                      -1  0  1  -1  0  0  -1  1  0       1  0 -1   1  0  0   1 -1  0
                       0  1  0   1  0  0   0  0  1       0 -1  0  -1  0  0   0  0 -1
                       0  0 -1   0  1 -1   1  0 -1       0  0  1   0 -1  1  -1  0  1
                       1 -1  0   0 -1  1   0 -1  0      -1  1  0   0  1 -1   0  1  0
                       0  0  1   1  0  0   0  1  0       0  0 -1  -1  0  0   0 -1  0
                      -1  1  0  -1  0  0  -1  0  1       1 -1  0   1  0  0   1  0 -1
                       0  0  1   0  1  0   1  0  0       0  0 -1   0 -1  0  -1  0  0
                       1 -1  0   0 -1  0   0 -1  1      -1  1  0   0  1  0   0  1 -1
                       0  0 -1   1  0 -1   0  1 -1       0  0  1  -1  0  1   0 -1  1
                      -1  1  0  -1  0  1  -1  0  0       1 -1  0   1  0 -1   1  0  0
            tnons      0.0000000  0.0000000  0.0000000     0.2500000  0.2500000  0.2500000
                       0.0000000  0.0000000  0.0000000     0.2500000  0.2500000  0.2500000
                       0.0000000  0.0000000  0.0000000     0.2500000  0.2500000  0.2500000
                       0.0000000  0.0000000  0.0000000     0.2500000  0.2500000  0.2500000
                       0.0000000  0.0000000  0.0000000     0.2500000  0.2500000  0.2500000
                       0.0000000  0.0000000  0.0000000     0.2500000  0.2500000  0.2500000
                       0.0000000  0.0000000  0.0000000     0.2500000  0.2500000  0.2500000
                       0.0000000  0.0000000  0.0000000     0.2500000  0.2500000  0.2500000
                       0.0000000  0.0000000  0.0000000     0.2500000  0.2500000  0.2500000
                       0.0000000  0.0000000  0.0000000     0.2500000  0.2500000  0.2500000
                       0.0000000  0.0000000  0.0000000     0.2500000  0.2500000  0.2500000
                       0.0000000  0.0000000  0.0000000     0.2500000  0.2500000  0.2500000
                       0.0000000  0.0000000  0.0000000     0.2500000  0.2500000  0.2500000
                       0.0000000  0.0000000  0.0000000     0.2500000  0.2500000  0.2500000
                       0.0000000  0.0000000  0.0000000     0.2500000  0.2500000  0.2500000
                       0.0000000  0.0000000  0.0000000     0.2500000  0.2500000  0.2500000
                       0.0000000  0.0000000  0.0000000     0.2500000  0.2500000  0.2500000
                       0.0000000  0.0000000  0.0000000     0.2500000  0.2500000  0.2500000
                       0.0000000  0.0000000  0.0000000     0.2500000  0.2500000  0.2500000
                       0.0000000  0.0000000  0.0000000     0.2500000  0.2500000  0.2500000
                       0.0000000  0.0000000  0.0000000     0.2500000  0.2500000  0.2500000
                       0.0000000  0.0000000  0.0000000     0.2500000  0.2500000  0.2500000
                       0.0000000  0.0000000  0.0000000     0.2500000  0.2500000  0.2500000
                       0.0000000  0.0000000  0.0000000     0.2500000  0.2500000  0.2500000
           toldfe1     1.00000000E-06 Hartree
           toldfe2     0.00000000E+00 Hartree
           toldfe3     0.00000000E+00 Hartree
           tolwfr1     0.00000000E+00
           tolwfr2     1.00000000E-10
           tolwfr3     1.00000000E-08
            typat      1  1
              wtk1       0.00583    0.01749    0.01749    0.01749    0.01749    0.01749
                         0.01749    0.01749    0.03499    0.03499    0.03499    0.03499
                         0.03499    0.01749    0.03499    0.03499    0.03499    0.03499
                         0.01749    0.03499    0.03499    0.01749    0.01749    0.03499
                         0.01749    0.00583    0.01749    0.01749    0.01749    0.01749
                         0.01749    0.03499    0.03499    0.03499    0.01749    0.03499
                         0.01749    0.01749    0.00583    0.01749    0.01749    0.01749
                         0.01749    0.00292
              wtk2       0.00292    0.00292    0.00292    0.00292    0.00292    0.00292
                         0.00292    0.00292    0.00292    0.00292    0.00292    0.00292
                         0.00292    0.00292    0.00292    0.00292    0.00292    0.00292
                         0.00292    0.00292    0.00292    0.00292    0.00292    0.00292
                         0.00292    0.00292    0.00292    0.00292    0.00292    0.00292
                         0.00292    0.00292    0.00292    0.00292    0.00292    0.00292
                         0.00292    0.00292    0.00292    0.00292    0.00292    0.00292
                         0.00292    0.00292    0.00292    0.00292    0.00292    0.00292
                         0.00292    0.00292
              wtk3       1.00000    1.00000    1.00000    1.00000    1.00000    1.00000
                         1.00000    1.00000    1.00000    1.00000    1.00000    1.00000
                         1.00000    1.00000    1.00000    1.00000    1.00000    1.00000
                         1.00000    1.00000    1.00000    1.00000    1.00000    1.00000
                         1.00000    1.00000    1.00000    1.00000    1.00000    1.00000
                         1.00000    1.00000    1.00000    1.00000    1.00000    1.00000
                         1.00000    1.00000    1.00000    1.00000    1.00000    1.00000
                         1.00000    1.00000    1.00000    1.00000    1.00000    1.00000
                         1.00000    1.00000
                       outvars : Printing only first  50 k-points.
           xangst      0.0000000000E+00  0.0000000000E+00  0.0000000000E+00
                       1.3916500211E+00  1.3916500211E+00  1.3916500211E+00
            xcart      0.0000000000E+00  0.0000000000E+00  0.0000000000E+00
                       2.6298374127E+00  2.6298374127E+00  2.6298374127E+00
             xred      0.0000000000E+00  0.0000000000E+00  0.0000000000E+00
                       2.5000000000E-01  2.5000000000E-01  2.5000000000E-01
            znucl       14.00000

================================================================================


- Timing analysis has been suppressed with timopt=0



================================================================================

 Suggested references for the acknowledgment of ABINIT usage.

 The users of ABINIT have little formal obligations with respect to the ABINIT group
 (those specified in the GNU General Public License, http://www.gnu.org/copyleft/gpl.txt).
 However, it is common practice in the scientific literature,
 to acknowledge the efforts of people that have made the research possible.
 In this spirit, please find below suggested citations of work written by ABINIT developers,
 corresponding to implementations inside of ABINIT that you have used in the present run.
 Note also that it will be of great value to readers of publications presenting these results,
 to read papers enabling them to understand the theoretical formalism and details
 of the ABINIT implementation.
 For information on why they are suggested, see also https://docs.abinit.org/theory/acknowledgments.
-
- [1] The Abinit project: Impact, environment and recent developments.
- Computer Phys. Comm. 248, 107042 (2020).
- X.Gonze, B. Amadon, G. Antonius, F.Arnardi, L.Baguet, J.-M.Beuken,
- J.Bieder, F.Bottin, J.Bouchet, E.Bousquet, N.Brouwer, F.Bruneval,
- G.Brunin, T.Cavignac, J.-B. Charraud, Wei Chen, M.Cote, S.Cottenier,
- J.Denier, G.Geneste, Ph.Ghosez, M.Giantomassi, Y.Gillet, O.Gingras,
- D.R.Hamann, G.Hautier, Xu He, N.Helbig, N.Holzwarth, Y.Jia, F.Jollet,
- W.Lafargue-Dit-Hauret, K.Lejaeghere, M.A.L.Marques, A.Martin, C.Martins,
- H.P.C. Miranda, F.Naccarato, K. Persson, G.Petretto, V.Planes, Y.Pouillon,
- S.Prokhorenko, F.Ricci, G.-M.Rignanese, A.H.Romero, M.M.Schmitt, M.Torrent,
- M.J.van Setten, B.Van Troeye, M.J.Verstraete, G.Zerah and J.W.Zwanzig
- Comment: the fifth generic paper describing the ABINIT project.
- Note that a version of this paper, that is not formatted for Computer Phys. Comm. 
- is available at https://www.abinit.org/sites/default/files/ABINIT20.pdf .
- The licence allows the authors to put it on the Web.
- DOI and bibtex: see https://docs.abinit.org/theory/bibliography/#gonze2020
-
- [2] Optimized norm-conserving Vanderbilt pseudopotentials.
- D.R. Hamann, Phys. Rev. B 88, 085117 (2013).
- Comment: Some pseudopotential generated using the ONCVPSP code were used.
- DOI and bibtex: see https://docs.abinit.org/theory/bibliography/#hamann2013
-
- [3] ABINIT: Overview, and focus on selected capabilities
- J. Chem. Phys. 152, 124102 (2020).
- A. Romero, D.C. Allan, B. Amadon, G. Antonius, T. Applencourt, L.Baguet,
- J.Bieder, F.Bottin, J.Bouchet, E.Bousquet, F.Bruneval,
- G.Brunin, D.Caliste, M.Cote,
- J.Denier, C. Dreyer, Ph.Ghosez, M.Giantomassi, Y.Gillet, O.Gingras,
- D.R.Hamann, G.Hautier, F.Jollet, G. Jomard,
- A.Martin, 
- H.P.C. Miranda, F.Naccarato, G.Petretto, N.A. Pike, V.Planes,
- S.Prokhorenko, T. Rangel, F.Ricci, G.-M.Rignanese, M.Royo, M.Stengel, M.Torrent,
- M.J.van Setten, B.Van Troeye, M.J.Verstraete, J.Wiktor, J.W.Zwanziger, and X.Gonze.
- Comment: a global overview of ABINIT, with focus on selected capabilities .
- Note that a version of this paper, that is not formatted for J. Chem. Phys 
- is available at https://www.abinit.org/sites/default/files/ABINIT20_JPC.pdf .
- The licence allows the authors to put it on the Web.
- DOI and bibtex: see https://docs.abinit.org/theory/bibliography/#romero2020
-
- [4] Recent developments in the ABINIT software package.
- Computer Phys. Comm. 205, 106 (2016).
- X.Gonze, F.Jollet, F.Abreu Araujo, D.Adams, B.Amadon, T.Applencourt,
- C.Audouze, J.-M.Beuken, J.Bieder, A.Bokhanchuk, E.Bousquet, F.Bruneval
- D.Caliste, M.Cote, F.Dahm, F.Da Pieve, M.Delaveau, M.Di Gennaro,
- B.Dorado, C.Espejo, G.Geneste, L.Genovese, A.Gerossier, M.Giantomassi,
- Y.Gillet, D.R.Hamann, L.He, G.Jomard, J.Laflamme Janssen, S.Le Roux,
- A.Levitt, A.Lherbier, F.Liu, I.Lukacevic, A.Martin, C.Martins,
- M.J.T.Oliveira, S.Ponce, Y.Pouillon, T.Rangel, G.-M.Rignanese,
- A.H.Romero, B.Rousseau, O.Rubel, A.A.Shukri, M.Stankovski, M.Torrent,
- M.J.Van Setten, B.Van Troeye, M.J.Verstraete, D.Waroquier, J.Wiktor,
- B.Xu, A.Zhou, J.W.Zwanziger.
- Comment: the fourth generic paper describing the ABINIT project.
- Note that a version of this paper, that is not formatted for Computer Phys. Comm. 
- is available at https://www.abinit.org/sites/default/files/ABINIT16.pdf .
- The licence allows the authors to put it on the Web.
- DOI and bibtex: see https://docs.abinit.org/theory/bibliography/#gonze2016
-
- And optionally:
-
- [5] ABINIT: First-principles approach of materials and nanosystem properties.
- Computer Phys. Comm. 180, 2582-2615 (2009).
- X. Gonze, B. Amadon, P.-M. Anglade, J.-M. Beuken, F. Bottin, P. Boulanger, F. Bruneval,
- D. Caliste, R. Caracas, M. Cote, T. Deutsch, L. Genovese, Ph. Ghosez, M. Giantomassi
- S. Goedecker, D.R. Hamann, P. Hermet, F. Jollet, G. Jomard, S. Leroux, M. Mancini, S. Mazevet,
- M.J.T. Oliveira, G. Onida, Y. Pouillon, T. Rangel, G.-M. Rignanese, D. Sangalli, R. Shaltaf,
- M. Torrent, M.J. Verstraete, G. Zerah, J.W. Zwanziger
- Comment: the third generic paper describing the ABINIT project.
- Note that a version of this paper, that is not formatted for Computer Phys. Comm. 
- is available at https://www.abinit.org/sites/default/files/ABINIT_CPC_v10.pdf .
- The licence allows the authors to put it on the Web.
- DOI and bibtex: see https://docs.abinit.org/theory/bibliography/#gonze2009
-
- Proc.   0 individual time (sec): cpu=        449.4  wall=        279.1

================================================================================

 Calculation completed.
.Delivered   0 WARNINGs and   0 COMMENTs to log file.
+Overall time at end (sec) : cpu=       1823.4  wall=       1116.2
