
.Version 9.6.2 of ABINIT 
.(MPI version, prepared for a x86_64_linux_gnu11.2 computer) 

.Copyright (C) 1998-2021 ABINIT group . 
 ABINIT comes with ABSOLUTELY NO WARRANTY.
 It is free software, and you are welcome to redistribute it
 under certain conditions (GNU General Public License,
 see ~abinit/COPYING or http://www.gnu.org/copyleft/gpl.txt).

 ABINIT is a project of the Universite Catholique de Louvain,
 Corning Inc. and other collaborators, see ~abinit/doc/developers/contributors.txt .
 Please read https://docs.abinit.org/theory/acknowledgments for suggested
 acknowledgments of the ABINIT effort.
 For more information, see https://www.abinit.org .

.Starting date : Sun  1 Jun 2025.
- ( at 20h42 )
  
- The starting date is more than 3 years after the initial release
- of this version of ABINIT, namely Nov 2021.
- This version of ABINIT is not supported anymore.
- Action: please, switch to a more recent version of ABINIT.
- input  file    -> ab.in
- output file    -> ab.abo
- root for input  files -> abi
- root for output files -> abo


 DATASET    1 : space group Fd -3 m (#227); Bravais cF (face-center cubic)
================================================================================
 Values of the parameters that define the memory need for DATASET  1.
     intxc =       0    ionmov =       0      iscf =       7    lmnmax =       6
     lnmax =       6     mgfft =      30  mpssoang =       3    mqgrid =    3001
     natom =       2  nloc_mem =       1    nspden =       1   nspinor =       1
    nsppol =       1      nsym =      48    n1xccc =    2501    ntypat =       1
    occopt =       1   xclevel =       2
-    mband =           5        mffmem =           1         mkmem =           5
       mpw =        1106          nfft =       27000          nkpt =          19
================================================================================
P This job should need less than                       9.892 Mbytes of memory.
  Rough estimation (10% accuracy) of disk space for files :
_ WF disk file :      1.605 Mbytes ; DEN or POT disk file :      0.208 Mbytes.
================================================================================


 DATASET    2 : space group Fd -3 m (#227); Bravais cF (face-center cubic)
================================================================================
 Values of the parameters that define the memory need for DATASET  2.
     intxc =       0    ionmov =       0      iscf =      -2    lmnmax =       6
     lnmax =       6     mgfft =      30  mpssoang =       3    mqgrid =    3001
     natom =       2  nloc_mem =       1    nspden =       1   nspinor =       1
    nsppol =       1      nsym =      48    n1xccc =    2501    ntypat =       1
    occopt =       1   xclevel =       2
-    mband =          20        mffmem =           1         mkmem =         183
       mpw =        1105          nfft =       27000          nkpt =         729
================================================================================
P This job should need less than                      72.211 Mbytes of memory.
  Rough estimation (10% accuracy) of disk space for files :
_ WF disk file :    245.835 Mbytes ; DEN or POT disk file :      0.208 Mbytes.
================================================================================


 DATASET    3 : space group Fd -3 m (#227); Bravais cF (face-center cubic)
================================================================================
 Values of the parameters that define the memory need for DATASET  3.
     intxc =       0    ionmov =       0      iscf =      -2    lmnmax =       6
     lnmax =       6     mgfft =      30  mpssoang =       3    mqgrid =    3001
     natom =       2  nloc_mem =       1    nspden =       1   nspinor =       1
    nsppol =       1      nsym =      48    n1xccc =    2501    ntypat =       1
    occopt =       1   xclevel =       2
-    mband =          20        mffmem =           1         mkmem =          50
       mpw =        1117          nfft =       27000          nkpt =         198
================================================================================
P This job should need less than                      24.251 Mbytes of memory.
  Rough estimation (10% accuracy) of disk space for files :
_ WF disk file :     67.497 Mbytes ; DEN or POT disk file :      0.208 Mbytes.
================================================================================

--------------------------------------------------------------------------------
------------- Echo of variables that govern the present computation ------------
--------------------------------------------------------------------------------
-
- outvars: echo of selected default values                                      
-   iomode0 =  0 , fftalg0 =112 , wfoptalg0 =  0
-
- outvars: echo of global parameters not present in the input file              
-  max_nthreads =    0
-
 -outvars: echo values of preprocessed input variables --------
            acell      1.8897261329E+00  1.8897261329E+00  1.8897261329E+00 Bohr
              amu      2.80855000E+01
          chkprim           0
      chksymbreak           0
           diemac      1.20000000E+01
        dosdeltae1     0.00000000E+00 Hartree
        dosdeltae2     2.57193829E-04 Hartree
        dosdeltae3     0.00000000E+00 Hartree
             ecut      1.83746627E+01 Hartree
-          fftalg         112
           getden1          0
           getden2          1
           getden3          1
           getwfk1          0
           getwfk2          1
           getwfk3          1
           iatsph2       1    2
             iscf1          7
             iscf2         -2
             iscf3         -2
           istwfk1       0    0    0    0    0    0    0    0    0    0
                         0    0    0    0    0    0    0    0    9
           istwfk3       2    0    0    0    0    0    0    0    0    0
                         0    0    0    0    0    0    0    0    0    0
                         0    0    0    0    0    0    0    0    5    0
                         0    0    0    0    0    0    0    0    0    0
                         0    0    0    0    0    0    0    0    0    0
                       outvar_i_n : Printing only first  50 k-points.
              ixc          11
           jdtset        1    2    3
              kpt1     1.00000000E-01  1.00000000E-01  1.00000000E-01
                       3.00000000E-01  1.00000000E-01  1.00000000E-01
                       5.00000000E-01  1.00000000E-01  1.00000000E-01
                      -3.00000000E-01  1.00000000E-01  1.00000000E-01
                      -1.00000000E-01  1.00000000E-01  1.00000000E-01
                       3.00000000E-01  3.00000000E-01  1.00000000E-01
                       5.00000000E-01  3.00000000E-01  1.00000000E-01
                      -3.00000000E-01  3.00000000E-01  1.00000000E-01
                      -1.00000000E-01  3.00000000E-01  1.00000000E-01
                       5.00000000E-01  5.00000000E-01  1.00000000E-01
                      -3.00000000E-01  5.00000000E-01  1.00000000E-01
                      -1.00000000E-01  5.00000000E-01  1.00000000E-01
                      -3.00000000E-01 -3.00000000E-01  1.00000000E-01
                       3.00000000E-01  3.00000000E-01  3.00000000E-01
                       5.00000000E-01  3.00000000E-01  3.00000000E-01
                      -3.00000000E-01  3.00000000E-01  3.00000000E-01
                       5.00000000E-01  5.00000000E-01  3.00000000E-01
                      -3.00000000E-01  5.00000000E-01  3.00000000E-01
                       5.00000000E-01  5.00000000E-01  5.00000000E-01
              kpt2     5.55555556E-02  5.55555556E-02  5.55555556E-02
                       1.66666667E-01  5.55555556E-02  5.55555556E-02
                       2.77777778E-01  5.55555556E-02  5.55555556E-02
                       3.88888889E-01  5.55555556E-02  5.55555556E-02
                       5.00000000E-01  5.55555556E-02  5.55555556E-02
                      -3.88888889E-01  5.55555556E-02  5.55555556E-02
                      -2.77777778E-01  5.55555556E-02  5.55555556E-02
                      -1.66666667E-01  5.55555556E-02  5.55555556E-02
                      -5.55555556E-02  5.55555556E-02  5.55555556E-02
                       5.55555556E-02  1.66666667E-01  5.55555556E-02
                       1.66666667E-01  1.66666667E-01  5.55555556E-02
                       2.77777778E-01  1.66666667E-01  5.55555556E-02
                       3.88888889E-01  1.66666667E-01  5.55555556E-02
                       5.00000000E-01  1.66666667E-01  5.55555556E-02
                      -3.88888889E-01  1.66666667E-01  5.55555556E-02
                      -2.77777778E-01  1.66666667E-01  5.55555556E-02
                      -1.66666667E-01  1.66666667E-01  5.55555556E-02
                      -5.55555556E-02  1.66666667E-01  5.55555556E-02
                       5.55555556E-02  2.77777778E-01  5.55555556E-02
                       1.66666667E-01  2.77777778E-01  5.55555556E-02
                       2.77777778E-01  2.77777778E-01  5.55555556E-02
                       3.88888889E-01  2.77777778E-01  5.55555556E-02
                       5.00000000E-01  2.77777778E-01  5.55555556E-02
                      -3.88888889E-01  2.77777778E-01  5.55555556E-02
                      -2.77777778E-01  2.77777778E-01  5.55555556E-02
                      -1.66666667E-01  2.77777778E-01  5.55555556E-02
                      -5.55555556E-02  2.77777778E-01  5.55555556E-02
                       5.55555556E-02  3.88888889E-01  5.55555556E-02
                       1.66666667E-01  3.88888889E-01  5.55555556E-02
                       2.77777778E-01  3.88888889E-01  5.55555556E-02
                       3.88888889E-01  3.88888889E-01  5.55555556E-02
                       5.00000000E-01  3.88888889E-01  5.55555556E-02
                      -3.88888889E-01  3.88888889E-01  5.55555556E-02
                      -2.77777778E-01  3.88888889E-01  5.55555556E-02
                      -1.66666667E-01  3.88888889E-01  5.55555556E-02
                      -5.55555556E-02  3.88888889E-01  5.55555556E-02
                       5.55555556E-02  5.00000000E-01  5.55555556E-02
                       1.66666667E-01  5.00000000E-01  5.55555556E-02
                       2.77777778E-01  5.00000000E-01  5.55555556E-02
                       3.88888889E-01  5.00000000E-01  5.55555556E-02
                       5.00000000E-01  5.00000000E-01  5.55555556E-02
                      -3.88888889E-01  5.00000000E-01  5.55555556E-02
                      -2.77777778E-01  5.00000000E-01  5.55555556E-02
                      -1.66666667E-01  5.00000000E-01  5.55555556E-02
                      -5.55555556E-02  5.00000000E-01  5.55555556E-02
                       5.55555556E-02 -3.88888889E-01  5.55555556E-02
                       1.66666667E-01 -3.88888889E-01  5.55555556E-02
                       2.77777778E-01 -3.88888889E-01  5.55555556E-02
                       3.88888889E-01 -3.88888889E-01  5.55555556E-02
                       5.00000000E-01 -3.88888889E-01  5.55555556E-02
              kpt3     0.00000000E+00  0.00000000E+00  0.00000000E+00
                       1.78571429E-02  0.00000000E+00  1.78571429E-02
                       3.57142857E-02  0.00000000E+00  3.57142857E-02
                       5.35714286E-02  0.00000000E+00  5.35714286E-02
                       7.14285714E-02  0.00000000E+00  7.14285714E-02
                       8.92857143E-02  0.00000000E+00  8.92857143E-02
                       1.07142857E-01  0.00000000E+00  1.07142857E-01
                       1.25000000E-01  0.00000000E+00  1.25000000E-01
                       1.42857143E-01  0.00000000E+00  1.42857143E-01
                       1.60714286E-01  0.00000000E+00  1.60714286E-01
                       1.78571429E-01  0.00000000E+00  1.78571429E-01
                       1.96428571E-01  0.00000000E+00  1.96428571E-01
                       2.14285714E-01  0.00000000E+00  2.14285714E-01
                       2.32142857E-01  0.00000000E+00  2.32142857E-01
                       2.50000000E-01  0.00000000E+00  2.50000000E-01
                       2.67857143E-01  0.00000000E+00  2.67857143E-01
                       2.85714286E-01  0.00000000E+00  2.85714286E-01
                       3.03571429E-01  0.00000000E+00  3.03571429E-01
                       3.21428571E-01  0.00000000E+00  3.21428571E-01
                       3.39285714E-01  0.00000000E+00  3.39285714E-01
                       3.57142857E-01  0.00000000E+00  3.57142857E-01
                       3.75000000E-01  0.00000000E+00  3.75000000E-01
                       3.92857143E-01  0.00000000E+00  3.92857143E-01
                       4.10714286E-01  0.00000000E+00  4.10714286E-01
                       4.28571429E-01  0.00000000E+00  4.28571429E-01
                       4.46428571E-01  0.00000000E+00  4.46428571E-01
                       4.64285714E-01  0.00000000E+00  4.64285714E-01
                       4.82142857E-01  0.00000000E+00  4.82142857E-01
                       5.00000000E-01  0.00000000E+00  5.00000000E-01
                       5.00000000E-01  1.78571429E-02  5.17857143E-01
                       5.00000000E-01  3.57142857E-02  5.35714286E-01
                       5.00000000E-01  5.35714286E-02  5.53571429E-01
                       5.00000000E-01  7.14285714E-02  5.71428571E-01
                       5.00000000E-01  8.92857143E-02  5.89285714E-01
                       5.00000000E-01  1.07142857E-01  6.07142857E-01
                       5.00000000E-01  1.25000000E-01  6.25000000E-01
                       5.00000000E-01  1.42857143E-01  6.42857143E-01
                       5.00000000E-01  1.60714286E-01  6.60714286E-01
                       5.00000000E-01  1.78571429E-01  6.78571429E-01
                       5.00000000E-01  1.96428571E-01  6.96428571E-01
                       5.00000000E-01  2.14285714E-01  7.14285714E-01
                       5.00000000E-01  2.32142857E-01  7.32142857E-01
                       5.00000000E-01  2.50000000E-01  7.50000000E-01
                       4.87500000E-01  2.62500000E-01  7.50000000E-01
                       4.75000000E-01  2.75000000E-01  7.50000000E-01
                       4.62500000E-01  2.87500000E-01  7.50000000E-01
                       4.50000000E-01  3.00000000E-01  7.50000000E-01
                       4.37500000E-01  3.12500000E-01  7.50000000E-01
                       4.25000000E-01  3.25000000E-01  7.50000000E-01
                       4.12500000E-01  3.37500000E-01  7.50000000E-01
                       outvar_i_n : Printing only first  50 k-points.
           kptopt1          1
           kptopt2          3
           kptopt3        -11
         kptrlatt1       5    0    0      0    5    0      0    0    5
         kptrlatt2       9    0    0      0    9    0      0    0    9
          kptrlen1     3.71915174E+01
          kptrlen2     6.69447312E+01
          kptrlen3     3.00000000E+01
P           mkmem1          5
P           mkmem2        183
P           mkmem3         50
            natom           2
           natsph2       2
            nband1          5
            nband2         20
            nband3         20
           nbdbuf1          0
           nbdbuf2          2
           nbdbuf3          2
           ndtset           3
           ndivsm1          0
           ndivsm2          0
           ndivsm3         10
            ngfft          30      30      30
             nkpt1         19
             nkpt2        729
             nkpt3        198
            nstep          20
             nsym          48
           ntypat           1
              occ      2.000000  2.000000  2.000000  2.000000  0.000000
           prtden1          1
           prtden2          1
           prtden3          0
           prtdos1          0
           prtdos2          3
           prtdos3          0
          prtdosm1          0
          prtdosm2          1
          prtdosm3          0
           prtelf1          0
           prtelf2          2
           prtelf3          0
            rprim      0.0000000000E+00  2.7833000422E+00  2.7833000422E+00
                       2.7833000422E+00  0.0000000000E+00  2.7833000422E+00
                       2.7833000422E+00  2.7833000422E+00  0.0000000000E+00
           shiftk      5.00000000E-01  5.00000000E-01  5.00000000E-01
          spgroup         227
           symrel      1  0  0   0  1  0   0  0  1      -1  0  0   0 -1  0   0  0 -1
                       0 -1  1   0 -1  0   1 -1  0       0  1 -1   0  1  0  -1  1  0
                      -1  0  0  -1  0  1  -1  1  0       1  0  0   1  0 -1   1 -1  0
                       0  1 -1   1  0 -1   0  0 -1       0 -1  1  -1  0  1   0  0  1
                      -1  0  0  -1  1  0  -1  0  1       1  0  0   1 -1  0   1  0 -1
                       0 -1  1   1 -1  0   0 -1  0       0  1 -1  -1  1  0   0  1  0
                       1  0  0   0  0  1   0  1  0      -1  0  0   0  0 -1   0 -1  0
                       0  1 -1   0  0 -1   1  0 -1       0 -1  1   0  0  1  -1  0  1
                      -1  0  1  -1  1  0  -1  0  0       1  0 -1   1 -1  0   1  0  0
                       0 -1  0   1 -1  0   0 -1  1       0  1  0  -1  1  0   0  1 -1
                       1  0 -1   0  0 -1   0  1 -1      -1  0  1   0  0  1   0 -1  1
                       0  1  0   0  0  1   1  0  0       0 -1  0   0  0 -1  -1  0  0
                       1  0 -1   0  1 -1   0  0 -1      -1  0  1   0 -1  1   0  0  1
                       0 -1  0   0 -1  1   1 -1  0       0  1  0   0  1 -1  -1  1  0
                      -1  0  1  -1  0  0  -1  1  0       1  0 -1   1  0  0   1 -1  0
                       0  1  0   1  0  0   0  0  1       0 -1  0  -1  0  0   0  0 -1
                       0  0 -1   0  1 -1   1  0 -1       0  0  1   0 -1  1  -1  0  1
                       1 -1  0   0 -1  1   0 -1  0      -1  1  0   0  1 -1   0  1  0
                       0  0  1   1  0  0   0  1  0       0  0 -1  -1  0  0   0 -1  0
                      -1  1  0  -1  0  0  -1  0  1       1 -1  0   1  0  0   1  0 -1
                       0  0  1   0  1  0   1  0  0       0  0 -1   0 -1  0  -1  0  0
                       1 -1  0   0 -1  0   0 -1  1      -1  1  0   0  1  0   0  1 -1
                       0  0 -1   1  0 -1   0  1 -1       0  0  1  -1  0  1   0 -1  1
                      -1  1  0  -1  0  1  -1  0  0       1 -1  0   1  0 -1   1  0  0
            tnons      0.0000000  0.0000000  0.0000000     0.2500000  0.2500000  0.2500000
                       0.0000000  0.0000000  0.0000000     0.2500000  0.2500000  0.2500000
                       0.0000000  0.0000000  0.0000000     0.2500000  0.2500000  0.2500000
                       0.0000000  0.0000000  0.0000000     0.2500000  0.2500000  0.2500000
                       0.0000000  0.0000000  0.0000000     0.2500000  0.2500000  0.2500000
                       0.0000000  0.0000000  0.0000000     0.2500000  0.2500000  0.2500000
                       0.0000000  0.0000000  0.0000000     0.2500000  0.2500000  0.2500000
                       0.0000000  0.0000000  0.0000000     0.2500000  0.2500000  0.2500000
                       0.0000000  0.0000000  0.0000000     0.2500000  0.2500000  0.2500000
                       0.0000000  0.0000000  0.0000000     0.2500000  0.2500000  0.2500000
                       0.0000000  0.0000000  0.0000000     0.2500000  0.2500000  0.2500000
                       0.0000000  0.0000000  0.0000000     0.2500000  0.2500000  0.2500000
                       0.0000000  0.0000000  0.0000000     0.2500000  0.2500000  0.2500000
                       0.0000000  0.0000000  0.0000000     0.2500000  0.2500000  0.2500000
                       0.0000000  0.0000000  0.0000000     0.2500000  0.2500000  0.2500000
                       0.0000000  0.0000000  0.0000000     0.2500000  0.2500000  0.2500000
                       0.0000000  0.0000000  0.0000000     0.2500000  0.2500000  0.2500000
                       0.0000000  0.0000000  0.0000000     0.2500000  0.2500000  0.2500000
                       0.0000000  0.0000000  0.0000000     0.2500000  0.2500000  0.2500000
                       0.0000000  0.0000000  0.0000000     0.2500000  0.2500000  0.2500000
                       0.0000000  0.0000000  0.0000000     0.2500000  0.2500000  0.2500000
                       0.0000000  0.0000000  0.0000000     0.2500000  0.2500000  0.2500000
                       0.0000000  0.0000000  0.0000000     0.2500000  0.2500000  0.2500000
                       0.0000000  0.0000000  0.0000000     0.2500000  0.2500000  0.2500000
           toldfe1     1.00000000E-06 Hartree
           toldfe2     0.00000000E+00 Hartree
           toldfe3     0.00000000E+00 Hartree
           tolwfr1     0.00000000E+00
           tolwfr2     1.00000000E-10
           tolwfr3     1.00000000E-08
            typat      1  1
              wtk1       0.01600    0.04800    0.04800    0.04800    0.04800    0.04800
                         0.09600    0.09600    0.09600    0.04800    0.09600    0.04800
                         0.04800    0.01600    0.04800    0.04800    0.04800    0.04800
                         0.00800
              wtk2       0.00137    0.00137    0.00137    0.00137    0.00137    0.00137
                         0.00137    0.00137    0.00137    0.00137    0.00137    0.00137
                         0.00137    0.00137    0.00137    0.00137    0.00137    0.00137
                         0.00137    0.00137    0.00137    0.00137    0.00137    0.00137
                         0.00137    0.00137    0.00137    0.00137    0.00137    0.00137
                         0.00137    0.00137    0.00137    0.00137    0.00137    0.00137
                         0.00137    0.00137    0.00137    0.00137    0.00137    0.00137
                         0.00137    0.00137    0.00137    0.00137    0.00137    0.00137
                         0.00137    0.00137
              wtk3       1.00000    1.00000    1.00000    1.00000    1.00000    1.00000
                         1.00000    1.00000    1.00000    1.00000    1.00000    1.00000
                         1.00000    1.00000    1.00000    1.00000    1.00000    1.00000
                         1.00000    1.00000    1.00000    1.00000    1.00000    1.00000
                         1.00000    1.00000    1.00000    1.00000    1.00000    1.00000
                         1.00000    1.00000    1.00000    1.00000    1.00000    1.00000
                         1.00000    1.00000    1.00000    1.00000    1.00000    1.00000
                         1.00000    1.00000    1.00000    1.00000    1.00000    1.00000
                         1.00000    1.00000
                       outvars : Printing only first  50 k-points.
           xangst      0.0000000000E+00  0.0000000000E+00  0.0000000000E+00
                       1.3916500211E+00  1.3916500211E+00  1.3916500211E+00
            xcart      0.0000000000E+00  0.0000000000E+00  0.0000000000E+00
                       2.6298374127E+00  2.6298374127E+00  2.6298374127E+00
             xred      0.0000000000E+00  0.0000000000E+00  0.0000000000E+00
                       2.5000000000E-01  2.5000000000E-01  2.5000000000E-01
            znucl       14.00000

================================================================================

 chkinp: Checking input parameters for consistency, jdtset=   1.

 chkinp: Checking input parameters for consistency, jdtset=   2.

 chkinp: Checking input parameters for consistency, jdtset=   3.

================================================================================
== DATASET  1 ==================================================================
-   mpi_nproc: 4, omp_nthreads: -1 (-1 if OMP is not activated)


--- !DatasetInfo
iteration_state: {dtset: 1, }
dimensions: {natom: 2, nkpt: 19, mband: 5, nsppol: 1, nspinor: 1, nspden: 1, mpw: 1106, }
cutoff_energies: {ecut:  18.4, pawecutdg:  -1.0, }
electrons: {nelect:   8.00000000E+00, charge:   0.00000000E+00, occopt:   1.00000000E+00, tsmear:   1.00000000E-02, }
meta: {optdriver: 0, ionmov: 0, optcell: 0, iscf: 7, paral_kgb: 0, }
...

 Exchange-correlation functional for the present dataset will be:
  GGA: Perdew-Burke-Ernzerhof functional - ixc=11
 Citation for XC functional:
  J.P.Perdew, K.Burke, M.Ernzerhof, PRL 77, 3865 (1996)

 Real(R)+Recip(G) space primitive vectors, cartesian coordinates (Bohr,Bohr^-1):
 R(1)=  0.0000000  5.2596748  5.2596748  G(1)= -0.0950629  0.0950629  0.0950629
 R(2)=  5.2596748  0.0000000  5.2596748  G(2)=  0.0950629 -0.0950629  0.0950629
 R(3)=  5.2596748  5.2596748  0.0000000  G(3)=  0.0950629  0.0950629 -0.0950629
 Unit cell volume ucvol=  2.9100917E+02 bohr^3
 Angles (23,13,12)=  6.00000000E+01  6.00000000E+01  6.00000000E+01 degrees

 getcut: wavevector=  0.0000  0.0000  0.0000  ngfft=  30  30  30
         ecut(hartree)=     18.375   => boxcut(ratio)=   2.09245

--- Pseudopotential description ------------------------------------------------
- pspini: atom type   1  psp file is si.psp8
- pspatm: opening atomic psp file    si.psp8
- Si    ONCVPSP-3.2.3.1  r_core=   1.60303   1.72197   1.91712
- 14.00000   4.00000    170510                znucl, zion, pspdat
    8   11    2    4       600   0.00000      pspcod,pspxc,lmax,lloc,mmax,r2well
    5.99000000000000    4.00000000000000    0.00000000000000   rchrg,fchrg,qchrg
     nproj     2     2     2
     extension_switch     1
  pspatm : epsatm=    9.34321699
         --- l  ekb(1:nproj) -->
             0    5.168965    0.829883
             1    2.571282    0.578307
             2   -2.427311   -0.488097
 pspatm: atomic psp has been read  and splines computed

   1.49491472E+02                                ecore*ucvol(ha*bohr**3)
--------------------------------------------------------------------------------

_setup2: Arith. and geom. avg. npw (full set) are    1094.912    1094.900

================================================================================

--- !BeginCycle
iteration_state: {dtset: 1, }
solver: {iscf: 7, nstep: 20, nline: 4, wfoptalg: 0, }
tolerances: {toldfe: 1.00E-06, }
...

     iter   Etot(hartree)      deltaE(h)  residm     vres2
 ETOT  1  -8.4563216924011    -8.456E+00 2.527E-02 4.741E+00
 ETOT  2  -8.4614380551872    -5.116E-03 2.504E-04 8.357E-02
 ETOT  3  -8.4614583394127    -2.028E-05 7.758E-05 5.585E-04
 ETOT  4  -8.4614584123403    -7.293E-08 1.659E-04 1.943E-05
 ETOT  5  -8.4614584149962    -2.656E-09 6.680E-05 3.449E-07

 At SCF step    5, etot is converged : 
  for the second time, diff in etot=  2.656E-09 < toldfe=  1.000E-06

 Cartesian components of stress tensor (hartree/bohr^3)
  sigma(1 1)=  1.42606076E-04  sigma(3 2)=  0.00000000E+00
  sigma(2 2)=  1.42606076E-04  sigma(3 1)=  0.00000000E+00
  sigma(3 3)=  1.42606076E-04  sigma(2 1)=  0.00000000E+00


--- !ResultsGS
iteration_state: {dtset: 1, }
comment   : Summary of ground state results
lattice_vectors:
- [  0.0000000,   5.2596748,   5.2596748, ]
- [  5.2596748,   0.0000000,   5.2596748, ]
- [  5.2596748,   5.2596748,   0.0000000, ]
lattice_lengths: [   7.43830,    7.43830,    7.43830, ]
lattice_angles: [ 60.000,  60.000,  60.000, ] # degrees, (23, 13, 12)
lattice_volume:   2.9100917E+02
convergence: {deltae: -2.656E-09, res2:  3.449E-07, residm:  6.680E-05, diffor: null, }
etotal    :  -8.46145841E+00
entropy   :   0.00000000E+00
fermie    :   1.30345541E-01
cartesian_stress_tensor: # hartree/bohr^3
- [  1.42606076E-04,   0.00000000E+00,   0.00000000E+00, ]
- [  0.00000000E+00,   1.42606076E-04,   0.00000000E+00, ]
- [  0.00000000E+00,   0.00000000E+00,   1.42606076E-04, ]
pressure_GPa:  -4.1956E+00
xred      :
- [  0.0000E+00,   0.0000E+00,   0.0000E+00, Si]
- [  2.5000E-01,   2.5000E-01,   2.5000E-01, Si]
cartesian_forces: # hartree/bohr
- [ -3.58358971E-28,   2.55970693E-28,  -2.55970693E-28, ]
- [  3.58358971E-28,  -2.55970693E-28,   2.55970693E-28, ]
force_length_stats: {min:   5.09375248E-28, max:   5.09375248E-28, mean:   5.09375248E-28, }
...

 Integrated electronic density in atomic spheres:
 ------------------------------------------------
 Atom  Sphere_radius  Integrated_density
    1        2.00000          1.71432357
    2        2.00000          1.73245252
================================================================================

 ----iterations are completed or convergence reached----

 Mean square residual over all n,k,spin=   73.309E-08; max=  66.796E-06
 reduced coordinates (array xred) for    2 atoms
       0.000000000000      0.000000000000      0.000000000000
       0.250000000000      0.250000000000      0.250000000000
 rms dE/dt=  1.9417E-27; max dE/dt=  3.2312E-27; dE/dt below (all hartree)
    1      -0.000000000000      0.000000000000      0.000000000000
    2      -0.000000000000     -0.000000000000      0.000000000000

 cartesian coordinates (angstrom) at end:
    1      0.00000000000000     0.00000000000000     0.00000000000000
    2      1.39165002107500     1.39165002107500     1.39165002107500

 cartesian forces (hartree/bohr) at end:
    1     -0.00000000000000     0.00000000000000    -0.00000000000000
    2      0.00000000000000    -0.00000000000000     0.00000000000000
 frms,max,avg= 2.9408794E-28 3.5835897E-28   0.000E+00  0.000E+00  0.000E+00 h/b

 cartesian forces (eV/Angstrom) at end:
    1     -0.00000000000000     0.00000000000000    -0.00000000000000
    2      0.00000000000000    -0.00000000000000     0.00000000000000
 frms,max,avg= 1.5122608E-26 1.8427558E-26   0.000E+00  0.000E+00  0.000E+00 e/A
 length scales=  1.889726132886  1.889726132886  1.889726132886 bohr
              =  1.000000000000  1.000000000000  1.000000000000 angstroms
 prteigrs : about to open file abo_DS1_EIG
 Fermi (or HOMO) energy (hartree) =   0.13035   Average Vxc (hartree)=  -0.33118
 Eigenvalues (hartree) for nkpt=  19  k points:
 kpt#   1, nband=  5, wtk=  0.01600, kpt=  0.1000  0.1000  0.1000 (reduced coord)
  -0.27989    0.09485    0.13035    0.13035    0.22295
 prteigrs : prtvol=0 or 1, do not print more k-points.


--- !EnergyTerms
iteration_state     : {dtset: 1, }
comment             : Components of total free energy in Hartree
kinetic             :  2.97948030851956E+00
hartree             :  5.80549057658014E-01
xc                  : -3.05148573041201E+00
Ewald energy        : -8.19335525187598E+00
psp_core            :  5.13700202344247E-01
local_psp           : -2.42661876208933E+00
non_local_psp       :  1.13627176085934E+00
total_energy        : -8.46145841499616E+00
total_energy_eV     : -2.30247992945888E+02
band_energy         : -3.31808152757575E-01
...


 Cartesian components of stress tensor (hartree/bohr^3)
  sigma(1 1)=  1.42606076E-04  sigma(3 2)=  0.00000000E+00
  sigma(2 2)=  1.42606076E-04  sigma(3 1)=  0.00000000E+00
  sigma(3 3)=  1.42606076E-04  sigma(2 1)=  0.00000000E+00

-Cartesian components of stress tensor (GPa)         [Pressure= -4.1956E+00 GPa]
- sigma(1 1)=  4.19561489E+00  sigma(3 2)=  0.00000000E+00
- sigma(2 2)=  4.19561489E+00  sigma(3 1)=  0.00000000E+00
- sigma(3 3)=  4.19561489E+00  sigma(2 1)=  0.00000000E+00

================================================================================
== DATASET  2 ==================================================================
-   mpi_nproc: 4, omp_nthreads: -1 (-1 if OMP is not activated)


--- !DatasetInfo
iteration_state: {dtset: 2, }
dimensions: {natom: 2, nkpt: 729, mband: 20, nsppol: 1, nspinor: 1, nspden: 1, mpw: 1105, }
cutoff_energies: {ecut:  18.4, pawecutdg:  -1.0, }
electrons: {nelect:   8.00000000E+00, charge:   0.00000000E+00, occopt:   1.00000000E+00, tsmear:   1.00000000E-02, }
meta: {optdriver: 0, ionmov: 0, optcell: 0, iscf: -2, paral_kgb: 0, }
...

 mkfilename : getwfk/=0, take file _WFK from output of DATASET   1.

 mkfilename : getden/=0, take file _DEN from output of DATASET   1.

 Exchange-correlation functional for the present dataset will be:
  GGA: Perdew-Burke-Ernzerhof functional - ixc=11
 Citation for XC functional:
  J.P.Perdew, K.Burke, M.Ernzerhof, PRL 77, 3865 (1996)

 Real(R)+Recip(G) space primitive vectors, cartesian coordinates (Bohr,Bohr^-1):
 R(1)=  0.0000000  5.2596748  5.2596748  G(1)= -0.0950629  0.0950629  0.0950629
 R(2)=  5.2596748  0.0000000  5.2596748  G(2)=  0.0950629 -0.0950629  0.0950629
 R(3)=  5.2596748  5.2596748  0.0000000  G(3)=  0.0950629  0.0950629 -0.0950629
 Unit cell volume ucvol=  2.9100917E+02 bohr^3
 Angles (23,13,12)=  6.00000000E+01  6.00000000E+01  6.00000000E+01 degrees

 getcut: wavevector=  0.0000  0.0000  0.0000  ngfft=  30  30  30
         ecut(hartree)=     18.375   => boxcut(ratio)=   2.09245
--------------------------------------------------------------------------------

-inwffil : will read wavefunctions from disk file abo_DS1_WFK

================================================================================
