
.Version 9.6.2 of ABINIT 
.(MPI version, prepared for a x86_64_linux_gnu11.2 computer) 

.Copyright (C) 1998-2021 ABINIT group . 
 ABINIT comes with ABSOLUTELY NO WARRANTY.
 It is free software, and you are welcome to redistribute it
 under certain conditions (GNU General Public License,
 see ~abinit/COPYING or http://www.gnu.org/copyleft/gpl.txt).

 ABINIT is a project of the Universite Catholique de Louvain,
 Corning Inc. and other collaborators, see ~abinit/doc/developers/contributors.txt .
 Please read https://docs.abinit.org/theory/acknowledgments for suggested
 acknowledgments of the ABINIT effort.
 For more information, see https://www.abinit.org .

.Starting date : Tue 27 May 2025.
- ( at 17h52 )
  
- The starting date is more than 3 years after the initial release
- of this version of ABINIT, namely Nov 2021.
- This version of ABINIT is not supported anymore.
- Action: please, switch to a more recent version of ABINIT.
- input  file    -> ab.in
- output file    -> ab.abo
- root for input  files -> abi
- root for output files -> abo


 DATASET    1 : space group Fd -3 m (#227); Bravais cF (face-center cubic)
================================================================================
 Values of the parameters that define the memory need for DATASET  1.
     intxc =       0    ionmov =       2      iscf =      17    lmnmax =       6
     lnmax =       6     mgfft =      30  mpssoang =       3    mqgrid =    3001
     natom =       2  nloc_mem =       1    nspden =       1   nspinor =       1
    nsppol =       1      nsym =      48    n1xccc =    2501    ntypat =       1
    occopt =       1   xclevel =       2
-    mband =           5        mffmem =           1         mkmem =          10
       mpw =        1052          nfft =       27000          nkpt =          10
================================================================================
P This job should need less than                      10.947 Mbytes of memory.
  Rough estimation (10% accuracy) of disk space for files :
_ WF disk file :      0.805 Mbytes ; DEN or POT disk file :      0.208 Mbytes.
================================================================================


 DATASET    2 : space group Fd -3 m (#227); Bravais cF (face-center cubic)
================================================================================
 Values of the parameters that define the memory need for DATASET  2.
     intxc =       0    ionmov =       2      iscf =       7    lmnmax =       6
     lnmax =       6     mgfft =      30  mpssoang =       3    mqgrid =    3001
     natom =       2  nloc_mem =       1    nspden =       1   nspinor =       1
    nsppol =       1      nsym =      48    n1xccc =    2501    ntypat =       1
    occopt =       1   xclevel =       2
-    mband =           5        mffmem =           1         mkmem =          10
       mpw =        1052          nfft =       27000          nkpt =          10
================================================================================
P This job should need less than                      10.329 Mbytes of memory.
  Rough estimation (10% accuracy) of disk space for files :
_ WF disk file :      0.805 Mbytes ; DEN or POT disk file :      0.208 Mbytes.
================================================================================

--------------------------------------------------------------------------------
------------- Echo of variables that govern the present computation ------------
--------------------------------------------------------------------------------
-
- outvars: echo of selected default values                                      
-   iomode0 =  0 , fftalg0 =112 , wfoptalg0 =  0
-
- outvars: echo of global parameters not present in the input file              
-  max_nthreads =    0
-
 -outvars: echo values of preprocessed input variables --------
            acell      1.8897261329E+00  1.8897261329E+00  1.8897261329E+00 Bohr
              amu      2.80855000E+01
           diemac      1.20000000E+01
          dilatmx      1.10000000E+00
             ecut      1.46997302E+01 Hartree
           ecutsm      5.00000000E-01 Hartree
-          fftalg         112
           ionmov           2
             iscf1         17
             iscf2          7
              ixc          11
           jdtset        1    2
              kpt     -1.25000000E-01 -2.50000000E-01  0.00000000E+00
                      -1.25000000E-01  5.00000000E-01  0.00000000E+00
                      -2.50000000E-01 -3.75000000E-01  0.00000000E+00
                      -1.25000000E-01 -3.75000000E-01  1.25000000E-01
                      -1.25000000E-01  2.50000000E-01  0.00000000E+00
                      -2.50000000E-01  3.75000000E-01  0.00000000E+00
                      -3.75000000E-01  5.00000000E-01  0.00000000E+00
                      -2.50000000E-01  5.00000000E-01  1.25000000E-01
                      -1.25000000E-01  0.00000000E+00  0.00000000E+00
                      -3.75000000E-01  0.00000000E+00  0.00000000E+00
         kptrlatt        4   -4    4     -4    4    4     -4   -4    4
          kptrlen      4.20773986E+01
P           mkmem          10
            natom           2
            nband           5
           ndtset           2
            ngfft          30      30      30
             nkpt          10
            nstep          10
             nsym          48
            ntime         300
           ntypat           1
              occ      2.000000  2.000000  2.000000  2.000000  0.000000
          optcell           2
           prtgeo           2
        prtposcar           1
            rprim      0.0000000000E+00  2.7833000422E+00  2.7833000422E+00
                       2.7833000422E+00  0.0000000000E+00  2.7833000422E+00
                       2.7833000422E+00  2.7833000422E+00  0.0000000000E+00
           shiftk      5.00000000E-01  5.00000000E-01  5.00000000E-01
          spgroup         227
           symrel      1  0  0   0  1  0   0  0  1      -1  0  0   0 -1  0   0  0 -1
                       0 -1  1   0 -1  0   1 -1  0       0  1 -1   0  1  0  -1  1  0
                      -1  0  0  -1  0  1  -1  1  0       1  0  0   1  0 -1   1 -1  0
                       0  1 -1   1  0 -1   0  0 -1       0 -1  1  -1  0  1   0  0  1
                      -1  0  0  -1  1  0  -1  0  1       1  0  0   1 -1  0   1  0 -1
                       0 -1  1   1 -1  0   0 -1  0       0  1 -1  -1  1  0   0  1  0
                       1  0  0   0  0  1   0  1  0      -1  0  0   0  0 -1   0 -1  0
                       0  1 -1   0  0 -1   1  0 -1       0 -1  1   0  0  1  -1  0  1
                      -1  0  1  -1  1  0  -1  0  0       1  0 -1   1 -1  0   1  0  0
                       0 -1  0   1 -1  0   0 -1  1       0  1  0  -1  1  0   0  1 -1
                       1  0 -1   0  0 -1   0  1 -1      -1  0  1   0  0  1   0 -1  1
                       0  1  0   0  0  1   1  0  0       0 -1  0   0  0 -1  -1  0  0
                       1  0 -1   0  1 -1   0  0 -1      -1  0  1   0 -1  1   0  0  1
                       0 -1  0   0 -1  1   1 -1  0       0  1  0   0  1 -1  -1  1  0
                      -1  0  1  -1  0  0  -1  1  0       1  0 -1   1  0  0   1 -1  0
                       0  1  0   1  0  0   0  0  1       0 -1  0  -1  0  0   0  0 -1
                       0  0 -1   0  1 -1   1  0 -1       0  0  1   0 -1  1  -1  0  1
                       1 -1  0   0 -1  1   0 -1  0      -1  1  0   0  1 -1   0  1  0
                       0  0  1   1  0  0   0  1  0       0  0 -1  -1  0  0   0 -1  0
                      -1  1  0  -1  0  0  -1  0  1       1 -1  0   1  0  0   1  0 -1
                       0  0  1   0  1  0   1  0  0       0  0 -1   0 -1  0  -1  0  0
                       1 -1  0   0 -1  0   0 -1  1      -1  1  0   0  1  0   0  1 -1
                       0  0 -1   1  0 -1   0  1 -1       0  0  1  -1  0  1   0 -1  1
                      -1  1  0  -1  0  1  -1  0  0       1 -1  0   1  0 -1   1  0  0
            tnons      0.0000000  0.0000000  0.0000000     0.2500000  0.2500000  0.2500000
                       0.0000000  0.0000000  0.0000000     0.2500000  0.2500000  0.2500000
                       0.0000000  0.0000000  0.0000000     0.2500000  0.2500000  0.2500000
                       0.0000000  0.0000000  0.0000000     0.2500000  0.2500000  0.2500000
                       0.0000000  0.0000000  0.0000000     0.2500000  0.2500000  0.2500000
                       0.0000000  0.0000000  0.0000000     0.2500000  0.2500000  0.2500000
                       0.0000000  0.0000000  0.0000000     0.2500000  0.2500000  0.2500000
                       0.0000000  0.0000000  0.0000000     0.2500000  0.2500000  0.2500000
                       0.0000000  0.0000000  0.0000000     0.2500000  0.2500000  0.2500000
                       0.0000000  0.0000000  0.0000000     0.2500000  0.2500000  0.2500000
                       0.0000000  0.0000000  0.0000000     0.2500000  0.2500000  0.2500000
                       0.0000000  0.0000000  0.0000000     0.2500000  0.2500000  0.2500000
                       0.0000000  0.0000000  0.0000000     0.2500000  0.2500000  0.2500000
                       0.0000000  0.0000000  0.0000000     0.2500000  0.2500000  0.2500000
                       0.0000000  0.0000000  0.0000000     0.2500000  0.2500000  0.2500000
                       0.0000000  0.0000000  0.0000000     0.2500000  0.2500000  0.2500000
                       0.0000000  0.0000000  0.0000000     0.2500000  0.2500000  0.2500000
                       0.0000000  0.0000000  0.0000000     0.2500000  0.2500000  0.2500000
                       0.0000000  0.0000000  0.0000000     0.2500000  0.2500000  0.2500000
                       0.0000000  0.0000000  0.0000000     0.2500000  0.2500000  0.2500000
                       0.0000000  0.0000000  0.0000000     0.2500000  0.2500000  0.2500000
                       0.0000000  0.0000000  0.0000000     0.2500000  0.2500000  0.2500000
                       0.0000000  0.0000000  0.0000000     0.2500000  0.2500000  0.2500000
                       0.0000000  0.0000000  0.0000000     0.2500000  0.2500000  0.2500000
           toldfe      3.67493254E-11 Hartree
            typat      1  1
              wtk        0.09375    0.09375    0.09375    0.18750    0.09375    0.09375
                         0.09375    0.18750    0.03125    0.03125
           xangst      0.0000000000E+00  0.0000000000E+00  0.0000000000E+00
                       1.3916500211E+00  1.3916500211E+00  1.3916500211E+00
            xcart      0.0000000000E+00  0.0000000000E+00  0.0000000000E+00
                       2.6298374127E+00  2.6298374127E+00  2.6298374127E+00
             xred      0.0000000000E+00  0.0000000000E+00  0.0000000000E+00
                       2.5000000000E-01  2.5000000000E-01  2.5000000000E-01
            znucl       14.00000

================================================================================

 chkinp: Checking input parameters for consistency, jdtset=   1.

 chkinp: Checking input parameters for consistency, jdtset=   2.

================================================================================
== DATASET  1 ==================================================================
-   mpi_nproc: 1, omp_nthreads: -1 (-1 if OMP is not activated)


--- !DatasetInfo
iteration_state: {dtset: 1, }
dimensions: {natom: 2, nkpt: 10, mband: 5, nsppol: 1, nspinor: 1, nspden: 1, mpw: 1052, }
cutoff_energies: {ecut:  14.7, pawecutdg:  -1.0, }
electrons: {nelect:   8.00000000E+00, charge:   0.00000000E+00, occopt:   1.00000000E+00, tsmear:   1.00000000E-02, }
meta: {optdriver: 0, ionmov: 2, optcell: 2, iscf: 17, paral_kgb: 0, }
...

 Exchange-correlation functional for the present dataset will be:
  GGA: Perdew-Burke-Ernzerhof functional - ixc=11
 Citation for XC functional:
  J.P.Perdew, K.Burke, M.Ernzerhof, PRL 77, 3865 (1996)

 Real(R)+Recip(G) space primitive vectors, cartesian coordinates (Bohr,Bohr^-1):
 R(1)=  0.0000000  5.2596748  5.2596748  G(1)= -0.0950629  0.0950629  0.0950629
 R(2)=  5.2596748  0.0000000  5.2596748  G(2)=  0.0950629 -0.0950629  0.0950629
 R(3)=  5.2596748  5.2596748  0.0000000  G(3)=  0.0950629  0.0950629 -0.0950629
 Unit cell volume ucvol=  2.9100917E+02 bohr^3
 Angles (23,13,12)=  6.00000000E+01  6.00000000E+01  6.00000000E+01 degrees

 getcut: wavevector=  0.0000  0.0000  0.0000  ngfft=  30  30  30
         ecut(hartree)=     17.787   => boxcut(ratio)=   2.12675

--- Pseudopotential description ------------------------------------------------
- pspini: atom type   1  psp file is si.psp8
- pspatm: opening atomic psp file    si.psp8
- Si    ONCVPSP-3.2.3.1  r_core=   1.60303   1.72197   1.91712
- 14.00000   4.00000    170510                znucl, zion, pspdat
    8   11    2    4       600   0.00000      pspcod,pspxc,lmax,lloc,mmax,r2well
    5.99000000000000    4.00000000000000    0.00000000000000   rchrg,fchrg,qchrg
     nproj     2     2     2
     extension_switch     1
  pspatm : epsatm=    9.34321699
         --- l  ekb(1:nproj) -->
             0    5.168965    0.829883
             1    2.571282    0.578307
             2   -2.427311   -0.488097
 pspatm: atomic psp has been read  and splines computed

   1.49491472E+02                                ecore*ucvol(ha*bohr**3)
--------------------------------------------------------------------------------

_setup2: Arith. and geom. avg. npw (full set) are    1044.063    1044.039

================================================================================

=== [ionmov= 2] Broyden-Fletcher-Goldfard-Shanno method (forces)            
================================================================================

--- Iteration: (  1/300) Internal Cycle: (1/1)
--------------------------------------------------------------------------------

---SELF-CONSISTENT-FIELD CONVERGENCE--------------------------------------------

--- !BeginCycle
iteration_state: {dtset: 1, itime: 1, icycle: 1, }
solver: {iscf: 17, nstep: 10, nline: 4, wfoptalg: 0, }
tolerances: {toldfe: 3.67E-11, }
...

     iter   Etot(hartree)      deltaE(h)  residm     nres2
 ETOT  1  -8.4641696215874    -8.464E+00 5.933E-03 1.045E+00
 ETOT  2  -8.4610731535015     3.096E-03 4.525E-05 2.218E-02
 ETOT  3  -8.4611983368122    -1.252E-04 2.137E-05 9.244E-04
 ETOT  4  -8.4612496015621    -5.126E-05 1.965E-06 1.377E-05
 ETOT  5  -8.4612509805625    -1.379E-06 5.752E-07 5.761E-08
 ETOT  6  -8.4612509842197    -3.657E-09 8.742E-08 8.046E-10
 ETOT  7  -8.4612509842514    -3.168E-11 1.795E-08 6.729E-12
 ETOT  8  -8.4612509842515    -1.315E-13 3.949E-09 6.210E-14

 At SCF step    8, etot is converged : 
  for the second time, diff in etot=  1.315E-13 < toldfe=  3.675E-11

 Cartesian components of stress tensor (hartree/bohr^3)
  sigma(1 1)=  1.41837598E-04  sigma(3 2)=  0.00000000E+00
  sigma(2 2)=  1.41837598E-04  sigma(3 1)=  0.00000000E+00
  sigma(3 3)=  1.41837598E-04  sigma(2 1)=  0.00000000E+00


--- !ResultsGS
iteration_state: {dtset: 1, itime: 1, icycle: 1, }
comment   : Summary of ground state results
lattice_vectors:
- [  0.0000000,   5.2596748,   5.2596748, ]
- [  5.2596748,   0.0000000,   5.2596748, ]
- [  5.2596748,   5.2596748,   0.0000000, ]
lattice_lengths: [   7.43830,    7.43830,    7.43830, ]
lattice_angles: [ 60.000,  60.000,  60.000, ] # degrees, (23, 13, 12)
lattice_volume:   2.9100917E+02
convergence: {deltae: -1.315E-13, res2:  6.210E-14, residm:  3.949E-09, diffor: null, }
etotal    :  -8.46125098E+00
entropy   :   0.00000000E+00
fermie    :   1.27296462E-01
cartesian_stress_tensor: # hartree/bohr^3
- [  1.41837598E-04,   0.00000000E+00,   0.00000000E+00, ]
- [  0.00000000E+00,   1.41837598E-04,   0.00000000E+00, ]
- [  0.00000000E+00,   0.00000000E+00,   1.41837598E-04, ]
pressure_GPa:  -4.1730E+00
xred      :
- [  0.0000E+00,   0.0000E+00,   0.0000E+00, Si]
- [  2.5000E-01,   2.5000E-01,   2.5000E-01, Si]
cartesian_forces: # hartree/bohr
- [ -1.99977104E-31,   1.99977104E-31,  -1.99977104E-31, ]
- [  1.99977104E-31,  -1.99977104E-31,   1.99977104E-31, ]
force_length_stats: {min:   3.46370505E-31, max:   3.46370505E-31, mean:   3.46370505E-31, }
...

 bonds_lgth_angles : about to open file abo_DS1_TIM1_GEO

 Integrated electronic density in atomic spheres:
 ------------------------------------------------
 Atom  Sphere_radius  Integrated_density
    1        2.00000          1.71398638
    2        2.00000          1.73212766

---OUTPUT-----------------------------------------------------------------------

 Cartesian coordinates (xcart) [bohr]
  0.00000000000000E+00  0.00000000000000E+00  0.00000000000000E+00
  2.62983741265628E+00  2.62983741265628E+00  2.62983741265628E+00
 Reduced coordinates (xred)
  0.00000000000000E+00  0.00000000000000E+00  0.00000000000000E+00
  2.50000000000000E-01  2.50000000000000E-01  2.50000000000000E-01
 Cartesian forces (fcart) [Ha/bohr]; max,rms= 1.99977E-31 1.99977E-31 (free atoms)
 -1.99977104142018E-31  1.99977104142018E-31 -1.99977104142018E-31
  1.99977104142018E-31 -1.99977104142018E-31  1.99977104142018E-31
 Gradient of E wrt nuclear positions in reduced coordinates (gred)
  1.75162308040602E-46  2.10362908058936E-30 -0.00000000000000E+00
 -1.75162308040602E-46 -2.10362908058936E-30 -0.00000000000000E+00
 Scale of Primitive Cell (acell) [bohr]
  1.88972613288564E+00  1.88972613288564E+00  1.88972613288564E+00
 Real space primitive translations (rprimd) [bohr]
  0.00000000000000E+00  5.25967482531257E+00  5.25967482531257E+00
  5.25967482531257E+00  0.00000000000000E+00  5.25967482531257E+00
  5.25967482531257E+00  5.25967482531257E+00  0.00000000000000E+00
 Unitary Cell Volume (ucvol) [Bohr^3]=  2.91009174517949E+02
 Angles (23,13,12)= [degrees]
  6.00000000000000E+01  6.00000000000000E+01  6.00000000000000E+01
 Lengths [Bohr]
  7.43830347162937E+00  7.43830347162937E+00  7.43830347162937E+00
 Stress tensor in cartesian coordinates (strten) [Ha/bohr^3]
  1.41837597610409E-04  0.00000000000000E+00  0.00000000000000E+00
  0.00000000000000E+00  1.41837597610409E-04  0.00000000000000E+00
  0.00000000000000E+00  0.00000000000000E+00  1.41837597610409E-04
 Total energy (etotal) [Ha]= -8.46125098425154E+00

--- Iteration: (  2/300) Internal Cycle: (1/1)
--------------------------------------------------------------------------------

---SELF-CONSISTENT-FIELD CONVERGENCE--------------------------------------------

--- !BeginCycle
iteration_state: {dtset: 1, itime: 2, icycle: 1, }
solver: {iscf: 17, nstep: 10, nline: 4, wfoptalg: 0, }
tolerances: {toldfe: 3.67E-11, }
...

     iter   Etot(hartree)      deltaE(h)  residm     nres2
 ETOT  1  -8.4616795668804    -8.462E+00 1.261E-06 5.554E-03
 ETOT  2  -8.4617172463784    -3.768E-05 1.837E-07 1.042E-04
 ETOT  3  -8.4617184198626    -1.173E-06 1.586E-08 2.728E-06
 ETOT  4  -8.4617185837548    -1.639E-07 9.786E-10 1.010E-07
 ETOT  5  -8.4617185926490    -8.894E-09 4.454E-10 4.294E-09
 ETOT  6  -8.4617185929313    -2.823E-10 2.346E-11 3.141E-12
 ETOT  7  -8.4617185929313    -5.329E-14 1.170E-11 5.963E-14
 ETOT  8  -8.4617185929313     8.882E-15 8.974E-13 2.583E-16

 At SCF step    8, etot is converged : 
  for the second time, diff in etot=  8.882E-15 < toldfe=  3.675E-11

 Cartesian components of stress tensor (hartree/bohr^3)
  sigma(1 1)=  1.10616423E-04  sigma(3 2)=  0.00000000E+00
  sigma(2 2)=  1.10616423E-04  sigma(3 1)=  0.00000000E+00
  sigma(3 3)=  1.10616423E-04  sigma(2 1)=  0.00000000E+00


--- !ResultsGS
iteration_state: {dtset: 1, itime: 2, icycle: 1, }
comment   : Summary of ground state results
lattice_vectors:
- [  0.0000000,   5.2372942,   5.2372942, ]
- [  5.2372942,   0.0000000,   5.2372942, ]
- [  5.2372942,   5.2372942,   0.0000000, ]
lattice_lengths: [   7.40665,    7.40665,    7.40665, ]
lattice_angles: [ 60.000,  60.000,  60.000, ] # degrees, (23, 13, 12)
lattice_volume:   2.8731012E+02
convergence: {deltae:  8.882E-15, res2:  2.583E-16, residm:  8.974E-13, diffor: null, }
etotal    :  -8.46171859E+00
entropy   :   0.00000000E+00
fermie    :   1.30972407E-01
cartesian_stress_tensor: # hartree/bohr^3
- [  1.10616423E-04,   0.00000000E+00,   0.00000000E+00, ]
- [  0.00000000E+00,   1.10616423E-04,   0.00000000E+00, ]
- [  0.00000000E+00,   0.00000000E+00,   1.10616423E-04, ]
pressure_GPa:  -3.2544E+00
xred      :
- [  1.9010E-32,  -5.7031E-32,   1.9010E-32, Si]
- [  2.5000E-01,   2.5000E-01,   2.5000E-01, Si]
cartesian_forces: # hartree/bohr
- [ -2.00831669E-31,   2.00831669E-31,  -2.00831669E-31, ]
- [  2.00831669E-31,  -2.00831669E-31,   2.00831669E-31, ]
force_length_stats: {min:   3.47850654E-31, max:   3.47850654E-31, mean:   3.47850654E-31, }
...

 bonds_lgth_angles : about to open file abo_DS1_TIM2_GEO

 Integrated electronic density in atomic spheres:
 ------------------------------------------------
 Atom  Sphere_radius  Integrated_density
    1        2.00000          1.70246905
    2        2.00000          1.78195687

---OUTPUT-----------------------------------------------------------------------

 Cartesian coordinates (xcart) [bohr]
 -1.99126175981160E-31  1.99126175981160E-31 -1.99126175981160E-31
  2.61864711803477E+00  2.61864711803477E+00  2.61864711803477E+00
 Reduced coordinates (xred)
  1.90104056604045E-32 -5.70312169812135E-32  1.90104056604045E-32
  2.50000000000000E-01  2.50000000000000E-01  2.50000000000000E-01
 Cartesian forces (fcart) [Ha/bohr]; max,rms= 2.00832E-31 2.00832E-31 (free atoms)
 -2.00831668583899E-31  2.00831668583899E-31 -2.00831668583899E-31
  2.00831668583899E-31 -2.00831668583899E-31  2.00831668583899E-31
 Gradient of E wrt nuclear positions in reduced coordinates (gred)
 -0.00000000000000E+00  2.10362908058937E-30 -0.00000000000000E+00
 -0.00000000000000E+00 -2.10362908058937E-30 -0.00000000000000E+00
 Scale of Primitive Cell (acell) [bohr]
  7.40665253878798E+00  7.40665253878798E+00  7.40665253878798E+00
 Real space primitive translations (rprimd) [bohr]
  0.00000000000000E+00  5.23729423606954E+00  5.23729423606954E+00
  5.23729423606954E+00  0.00000000000000E+00  5.23729423606954E+00
  5.23729423606954E+00  5.23729423606954E+00  0.00000000000000E+00
 Unitary Cell Volume (ucvol) [Bohr^3]=  2.87310115435421E+02
 Angles (23,13,12)= [degrees]
  6.00000000000000E+01  6.00000000000000E+01  6.00000000000000E+01
 Lengths [Bohr]
  7.40665253878798E+00  7.40665253878798E+00  7.40665253878798E+00
 Stress tensor in cartesian coordinates (strten) [Ha/bohr^3]
  1.10616423012024E-04  0.00000000000000E+00  0.00000000000000E+00
  0.00000000000000E+00  1.10616423012023E-04  0.00000000000000E+00
  0.00000000000000E+00  0.00000000000000E+00  1.10616423012024E-04
 Total energy (etotal) [Ha]= -8.46171859293130E+00

 Difference of energy with previous step (new-old):
           Absolute (Ha)=-4.67609E-04
           Relative     =-5.52632E-05

--- Iteration: (  3/300) Internal Cycle: (1/1)
--------------------------------------------------------------------------------

---SELF-CONSISTENT-FIELD CONVERGENCE--------------------------------------------

--- !BeginCycle
iteration_state: {dtset: 1, itime: 3, icycle: 1, }
solver: {iscf: 17, nstep: 10, nline: 4, wfoptalg: 0, }
tolerances: {toldfe: 3.67E-11, }
...

     iter   Etot(hartree)      deltaE(h)  residm     nres2
 ETOT  1  -8.4618886224149    -8.462E+00 9.144E-06 6.614E-02
 ETOT  2  -8.4623494392015    -4.608E-04 1.692E-06 1.236E-03
 ETOT  3  -8.4623590049337    -9.566E-06 1.282E-07 2.885E-05
 ETOT  4  -8.4623604070958    -1.402E-06 9.573E-09 9.336E-07
 ETOT  5  -8.4623604787909    -7.170E-08 4.283E-09 4.004E-08
 ETOT  6  -8.4623604811622    -2.371E-09 2.480E-10 3.219E-11
 ETOT  7  -8.4623604811630    -7.372E-13 1.061E-10 5.228E-13
 ETOT  8  -8.4623604811630     0.000E+00 8.664E-12 2.273E-15

 At SCF step    8, etot is converged : 
  for the second time, diff in etot=  0.000E+00 < toldfe=  3.675E-11

 Cartesian components of stress tensor (hartree/bohr^3)
  sigma(1 1)= -9.45830057E-06  sigma(3 2)=  0.00000000E+00
  sigma(2 2)= -9.45830057E-06  sigma(3 1)=  0.00000000E+00
  sigma(3 3)= -9.45830057E-06  sigma(2 1)=  0.00000000E+00


--- !ResultsGS
iteration_state: {dtset: 1, itime: 3, icycle: 1, }
comment   : Summary of ground state results
lattice_vectors:
- [  0.0000000,   5.1623816,   5.1623816, ]
- [  5.1623816,   0.0000000,   5.1623816, ]
- [  5.1623816,   5.1623816,   0.0000000, ]
lattice_lengths: [   7.30071,    7.30071,    7.30071, ]
lattice_angles: [ 60.000,  60.000,  60.000, ] # degrees, (23, 13, 12)
lattice_volume:   2.7515684E+02
convergence: {deltae:  0.000E+00, res2:  2.273E-15, residm:  8.664E-12, diffor: null, }
etotal    :  -8.46236048E+00
entropy   :   0.00000000E+00
fermie    :   1.43698192E-01
cartesian_stress_tensor: # hartree/bohr^3
- [ -9.45830057E-06,   0.00000000E+00,   0.00000000E+00, ]
- [  0.00000000E+00,  -9.45830057E-06,   0.00000000E+00, ]
- [  0.00000000E+00,   0.00000000E+00,  -9.45830057E-06, ]
pressure_GPa:   2.7827E-01
xred      :
- [  1.0165E-31,  -3.0496E-31,   1.0165E-31, Si]
- [  2.5000E-01,   2.5000E-01,   2.5000E-01, Si]
cartesian_forces: # hartree/bohr
- [ -0.00000000E+00,  -0.00000000E+00,  -0.00000000E+00, ]
- [ -0.00000000E+00,  -0.00000000E+00,  -0.00000000E+00, ]
force_length_stats: {min:   0.00000000E+00, max:   0.00000000E+00, mean:   0.00000000E+00, }
...

 bonds_lgth_angles : about to open file abo_DS1_TIM3_GEO

 Integrated electronic density in atomic spheres:
 ------------------------------------------------
 Atom  Sphere_radius  Integrated_density
    1        2.00000          1.77635606
    2        2.00000          1.77001401

---OUTPUT-----------------------------------------------------------------------

 Cartesian coordinates (xcart) [bohr]
 -1.04954026211469E-30  1.04954026211469E-30 -1.04954026211469E-30
  2.58119079975777E+00  2.58119079975777E+00  2.58119079975777E+00
 Reduced coordinates (xred)
  1.01652719959058E-31 -3.04958159877173E-31  1.01652719959058E-31
  2.50000000000000E-01  2.50000000000000E-01  2.50000000000000E-01
 Cartesian forces (fcart) [Ha/bohr]; max,rms= 0.00000E+00 0.00000E+00 (free atoms)
 -0.00000000000000E+00 -0.00000000000000E+00 -0.00000000000000E+00
 -0.00000000000000E+00 -0.00000000000000E+00 -0.00000000000000E+00
 Gradient of E wrt nuclear positions in reduced coordinates (gred)
  0.00000000000000E+00  0.00000000000000E+00  0.00000000000000E+00
  0.00000000000000E+00  0.00000000000000E+00  0.00000000000000E+00
 Scale of Primitive Cell (acell) [bohr]
  7.30071007218020E+00  7.30071007218020E+00  7.30071007218020E+00
 Real space primitive translations (rprimd) [bohr]
  0.00000000000000E+00  5.16238159951555E+00  5.16238159951555E+00
  5.16238159951555E+00  0.00000000000000E+00  5.16238159951555E+00
  5.16238159951555E+00  5.16238159951555E+00  0.00000000000000E+00
 Unitary Cell Volume (ucvol) [Bohr^3]=  2.75156836729007E+02
 Angles (23,13,12)= [degrees]
  6.00000000000000E+01  6.00000000000000E+01  6.00000000000000E+01
 Lengths [Bohr]
  7.30071007218020E+00  7.30071007218020E+00  7.30071007218020E+00
 Stress tensor in cartesian coordinates (strten) [Ha/bohr^3]
 -9.45830056586034E-06  0.00000000000000E+00  0.00000000000000E+00
  0.00000000000000E+00 -9.45830056585991E-06  0.00000000000000E+00
  0.00000000000000E+00  0.00000000000000E+00 -9.45830056586034E-06
 Total energy (etotal) [Ha]= -8.46236048116299E+00

 Difference of energy with previous step (new-old):
           Absolute (Ha)=-6.41888E-04
           Relative     =-7.58550E-05

--- Iteration: (  4/300) Internal Cycle: (1/1)
--------------------------------------------------------------------------------

---SELF-CONSISTENT-FIELD CONVERGENCE--------------------------------------------

--- !BeginCycle
iteration_state: {dtset: 1, itime: 4, icycle: 1, }
solver: {iscf: 17, nstep: 10, nline: 4, wfoptalg: 0, }
tolerances: {toldfe: 3.67E-11, }
...

     iter   Etot(hartree)      deltaE(h)  residm     nres2
 ETOT  1  -8.4623617587121    -8.462E+00 2.176E-08 3.952E-04
 ETOT  2  -8.4623644824700    -2.724E-06 1.115E-08 7.225E-06
 ETOT  3  -8.4623645411137    -5.864E-08 8.063E-10 1.646E-07
 ETOT  4  -8.4623645495548    -8.441E-09 5.339E-11 5.571E-09
 ETOT  5  -8.4623645499975    -4.427E-10 2.367E-11 2.420E-10
 ETOT  6  -8.4623645500121    -1.455E-11 1.160E-12 2.008E-13
 ETOT  7  -8.4623645500120     1.954E-14 4.795E-13 3.938E-15

 At SCF step    7, etot is converged : 
  for the second time, diff in etot=  1.954E-14 < toldfe=  3.675E-11

 Cartesian components of stress tensor (hartree/bohr^3)
  sigma(1 1)=  4.69222202E-07  sigma(3 2)=  0.00000000E+00
  sigma(2 2)=  4.69222202E-07  sigma(3 1)=  0.00000000E+00
  sigma(3 3)=  4.69222202E-07  sigma(2 1)=  0.00000000E+00


--- !ResultsGS
iteration_state: {dtset: 1, itime: 4, icycle: 1, }
comment   : Summary of ground state results
lattice_vectors:
- [  0.0000000,   5.1680518,   5.1680518, ]
- [  5.1680518,   0.0000000,   5.1680518, ]
- [  5.1680518,   5.1680518,   0.0000000, ]
lattice_lengths: [   7.30873,    7.30873,    7.30873, ]
lattice_angles: [ 60.000,  60.000,  60.000, ] # degrees, (23, 13, 12)
lattice_volume:   2.7606450E+02
convergence: {deltae:  1.954E-14, res2:  3.938E-15, residm:  4.795E-13, diffor: null, }
etotal    :  -8.46236455E+00
entropy   :   0.00000000E+00
fermie    :   1.42711073E-01
cartesian_stress_tensor: # hartree/bohr^3
- [  4.69222202E-07,   0.00000000E+00,   0.00000000E+00, ]
- [  0.00000000E+00,   4.69222202E-07,   0.00000000E+00, ]
- [  0.00000000E+00,   0.00000000E+00,   4.69222202E-07, ]
pressure_GPa:  -1.3805E-02
xred      :
- [  9.6836E-32,  -2.9051E-31,   9.6836E-32, Si]
- [  2.5000E-01,   2.5000E-01,   2.5000E-01, Si]
cartesian_forces: # hartree/bohr
- [ -0.00000000E+00,  -0.00000000E+00,  -0.00000000E+00, ]
- [ -0.00000000E+00,  -0.00000000E+00,  -0.00000000E+00, ]
force_length_stats: {min:   0.00000000E+00, max:   0.00000000E+00, mean:   0.00000000E+00, }
...

 bonds_lgth_angles : about to open file abo_DS1_TIM4_GEO

 Integrated electronic density in atomic spheres:
 ------------------------------------------------
 Atom  Sphere_radius  Integrated_density
    1        2.00000          1.77925741
    2        2.00000          1.77292015

---OUTPUT-----------------------------------------------------------------------

 Cartesian coordinates (xcart) [bohr]
 -1.00091105420212E-30  1.00091105420212E-30 -1.00091105420212E-30
  2.58402588078580E+00  2.58402588078580E+00  2.58402588078580E+00
 Reduced coordinates (xred)
  9.68363999026339E-32 -2.90509199707902E-31  9.68363999026339E-32
  2.50000000000000E-01  2.50000000000000E-01  2.50000000000000E-01
 Cartesian forces (fcart) [Ha/bohr]; max,rms= 0.00000E+00 0.00000E+00 (free atoms)
 -0.00000000000000E+00 -0.00000000000000E+00 -0.00000000000000E+00
 -0.00000000000000E+00 -0.00000000000000E+00 -0.00000000000000E+00
 Gradient of E wrt nuclear positions in reduced coordinates (gred)
  0.00000000000000E+00  0.00000000000000E+00  0.00000000000000E+00
  0.00000000000000E+00  0.00000000000000E+00  0.00000000000000E+00
 Scale of Primitive Cell (acell) [bohr]
  7.30872889226072E+00  7.30872889226072E+00  7.30872889226072E+00
 Real space primitive translations (rprimd) [bohr]
  0.00000000000000E+00  5.16805176157160E+00  5.16805176157160E+00
  5.16805176157160E+00  0.00000000000000E+00  5.16805176157160E+00
  5.16805176157160E+00  5.16805176157160E+00  0.00000000000000E+00
 Unitary Cell Volume (ucvol) [Bohr^3]=  2.76064498104971E+02
 Angles (23,13,12)= [degrees]
  6.00000000000000E+01  6.00000000000000E+01  6.00000000000000E+01
 Lengths [Bohr]
  7.30872889226072E+00  7.30872889226072E+00  7.30872889226072E+00
 Stress tensor in cartesian coordinates (strten) [Ha/bohr^3]
  4.69222202236982E-07  0.00000000000000E+00  0.00000000000000E+00
  0.00000000000000E+00  4.69222202236549E-07  0.00000000000000E+00
  0.00000000000000E+00  0.00000000000000E+00  4.69222202236549E-07
 Total energy (etotal) [Ha]= -8.46236455001205E+00

 Difference of energy with previous step (new-old):
           Absolute (Ha)=-4.06885E-06
           Relative     =-4.80817E-07

 At Broyd/MD step   4, gradients are converged : 
  max grad (force/stress) = 4.6922E-05 < tolmxf= 5.0000E-05 ha/bohr (free atoms)

================================================================================

 ----iterations are completed or convergence reached----

 Mean square residual over all n,k,spin=   10.651E-15; max=  47.946E-14
 reduced coordinates (array xred) for    2 atoms
       0.000000000000     -0.000000000000      0.000000000000
       0.250000000000      0.250000000000      0.250000000000
 rms dE/dt=  0.0000E+00; max dE/dt=  0.0000E+00; dE/dt below (all hartree)
    1       0.000000000000      0.000000000000      0.000000000000
    2       0.000000000000      0.000000000000      0.000000000000

 cartesian coordinates (angstrom) at end:
    1     -0.00000000000000     0.00000000000000    -0.00000000000000
    2      1.36740760251854     1.36740760251854     1.36740760251854

 cartesian forces (hartree/bohr) at end:
    1     -0.00000000000000    -0.00000000000000    -0.00000000000000
    2     -0.00000000000000    -0.00000000000000    -0.00000000000000
 frms,max,avg= 0.0000000E+00 0.0000000E+00   0.000E+00  0.000E+00  0.000E+00 h/b

 cartesian forces (eV/Angstrom) at end:
    1     -0.00000000000000    -0.00000000000000    -0.00000000000000
    2     -0.00000000000000    -0.00000000000000    -0.00000000000000
 frms,max,avg= 0.0000000E+00 0.0000000E+00   0.000E+00  0.000E+00  0.000E+00 e/A
 length scales=  7.308728892261  7.308728892261  7.308728892261 bohr
              =  3.867612753548  3.867612753548  3.867612753548 angstroms
 prteigrs : about to open file abo_DS1_EIG
 Fermi (or HOMO) energy (hartree) =   0.14271   Average Vxc (hartree)=  -0.33842
 Eigenvalues (hartree) for nkpt=  10  k points:
 kpt#   1, nband=  5, wtk=  0.09375, kpt= -0.1250 -0.2500  0.0000 (reduced coord)
  -0.25447    0.03505    0.10564    0.10795    0.23178
 prteigrs : prtvol=0 or 1, do not print more k-points.


--- !EnergyTerms
iteration_state     : {dtset: 1, itime: 4, icycle: 1, }
comment             : Components of total free energy in Hartree
kinetic             :  3.04233636570389E+00
hartree             :  5.57222587809706E-01
xc                  : -3.08002936538677E+00
Ewald energy        : -8.33861314501032E+00
psp_core            :  5.41509222881167E-01
local_psp           : -2.33258603491385E+00
non_local_psp       :  1.14779579414752E+00
total_energy        : -8.46236457476865E+00
...


--- !EnergyTermsDC
iteration_state     : {dtset: 1, itime: 4, icycle: 1, }
comment             : '"Double-counting" decomposition of free energy'
band_energy         : -2.46779511149969E-01
Ewald energy        : -8.33861314501032E+00
psp_core            :  5.41509222881167E-01
xc_dc               : -4.18481116732925E-01
total_energy_dc     : -8.46236455001205E+00
...


 Cartesian components of stress tensor (hartree/bohr^3)
  sigma(1 1)=  4.69222202E-07  sigma(3 2)=  0.00000000E+00
  sigma(2 2)=  4.69222202E-07  sigma(3 1)=  0.00000000E+00
  sigma(3 3)=  4.69222202E-07  sigma(2 1)=  0.00000000E+00

-Cartesian components of stress tensor (GPa)         [Pressure= -1.3805E-02 GPa]
- sigma(1 1)=  1.38049915E-02  sigma(3 2)=  0.00000000E+00
- sigma(2 2)=  1.38049915E-02  sigma(3 1)=  0.00000000E+00
- sigma(3 3)=  1.38049915E-02  sigma(2 1)=  0.00000000E+00

================================================================================
== DATASET  2 ==================================================================
-   mpi_nproc: 1, omp_nthreads: -1 (-1 if OMP is not activated)


--- !DatasetInfo
iteration_state: {dtset: 2, }
dimensions: {natom: 2, nkpt: 10, mband: 5, nsppol: 1, nspinor: 1, nspden: 1, mpw: 1052, }
cutoff_energies: {ecut:  14.7, pawecutdg:  -1.0, }
electrons: {nelect:   8.00000000E+00, charge:   0.00000000E+00, occopt:   1.00000000E+00, tsmear:   1.00000000E-02, }
meta: {optdriver: 0, ionmov: 2, optcell: 2, iscf: 7, paral_kgb: 0, }
...

 Exchange-correlation functional for the present dataset will be:
  GGA: Perdew-Burke-Ernzerhof functional - ixc=11
 Citation for XC functional:
  J.P.Perdew, K.Burke, M.Ernzerhof, PRL 77, 3865 (1996)

 Real(R)+Recip(G) space primitive vectors, cartesian coordinates (Bohr,Bohr^-1):
 R(1)=  0.0000000  5.2596748  5.2596748  G(1)= -0.0950629  0.0950629  0.0950629
 R(2)=  5.2596748  0.0000000  5.2596748  G(2)=  0.0950629 -0.0950629  0.0950629
 R(3)=  5.2596748  5.2596748  0.0000000  G(3)=  0.0950629  0.0950629 -0.0950629
 Unit cell volume ucvol=  2.9100917E+02 bohr^3
 Angles (23,13,12)=  6.00000000E+01  6.00000000E+01  6.00000000E+01 degrees

 getcut: wavevector=  0.0000  0.0000  0.0000  ngfft=  30  30  30
         ecut(hartree)=     17.787   => boxcut(ratio)=   2.12675
--------------------------------------------------------------------------------

_setup2: Arith. and geom. avg. npw (full set) are    1044.063    1044.039

================================================================================

=== [ionmov= 2] Broyden-Fletcher-Goldfard-Shanno method (forces)            
================================================================================

--- Iteration: (  1/300) Internal Cycle: (1/1)
--------------------------------------------------------------------------------

---SELF-CONSISTENT-FIELD CONVERGENCE--------------------------------------------

--- !BeginCycle
iteration_state: {dtset: 2, itime: 1, icycle: 1, }
solver: {iscf: 7, nstep: 10, nline: 4, wfoptalg: 0, }
tolerances: {toldfe: 3.67E-11, }
...

     iter   Etot(hartree)      deltaE(h)  residm     vres2
 ETOT  1  -8.4576791695153    -8.458E+00 5.933E-03 4.837E+00
 ETOT  2  -8.4612337299225    -3.555E-03 4.894E-05 7.188E-02
 ETOT  3  -8.4612508804553    -1.715E-05 2.508E-05 7.368E-04
 ETOT  4  -8.4612509807089    -1.003E-07 2.321E-06 3.074E-05
 ETOT  5  -8.4612509841865    -3.478E-09 6.670E-07 7.782E-07
 ETOT  6  -8.4612509842512    -6.463E-11 9.481E-08 5.780E-09
 ETOT  7  -8.4612509842514    -2.114E-13 2.100E-08 5.951E-11
 ETOT  8  -8.4612509842515    -1.652E-13 4.041E-09 4.308E-13

 At SCF step    8, etot is converged : 
  for the second time, diff in etot=  1.652E-13 < toldfe=  3.675E-11

 Cartesian components of stress tensor (hartree/bohr^3)
  sigma(1 1)=  1.41837563E-04  sigma(3 2)=  0.00000000E+00
  sigma(2 2)=  1.41837563E-04  sigma(3 1)=  0.00000000E+00
  sigma(3 3)=  1.41837563E-04  sigma(2 1)=  0.00000000E+00


--- !ResultsGS
iteration_state: {dtset: 2, itime: 1, icycle: 1, }
comment   : Summary of ground state results
lattice_vectors:
- [  0.0000000,   5.2596748,   5.2596748, ]
- [  5.2596748,   0.0000000,   5.2596748, ]
- [  5.2596748,   5.2596748,   0.0000000, ]
lattice_lengths: [   7.43830,    7.43830,    7.43830, ]
lattice_angles: [ 60.000,  60.000,  60.000, ] # degrees, (23, 13, 12)
lattice_volume:   2.9100917E+02
convergence: {deltae: -1.652E-13, res2:  4.308E-13, residm:  4.041E-09, diffor: null, }
etotal    :  -8.46125098E+00
entropy   :   0.00000000E+00
fermie    :   1.27296464E-01
cartesian_stress_tensor: # hartree/bohr^3
- [  1.41837563E-04,   0.00000000E+00,   0.00000000E+00, ]
- [  0.00000000E+00,   1.41837563E-04,   0.00000000E+00, ]
- [  0.00000000E+00,   0.00000000E+00,   1.41837563E-04, ]
pressure_GPa:  -4.1730E+00
xred      :
- [  0.0000E+00,   0.0000E+00,   0.0000E+00, Si]
- [  2.5000E-01,   2.5000E-01,   2.5000E-01, Si]
cartesian_forces: # hartree/bohr
- [  9.99885521E-32,  -9.99885521E-32,   9.99885521E-32, ]
- [ -9.99885521E-32,   9.99885521E-32,  -9.99885521E-32, ]
force_length_stats: {min:   1.73185252E-31, max:   1.73185252E-31, mean:   1.73185252E-31, }
...

 bonds_lgth_angles : about to open file abo_DS2_TIM1_GEO

 Integrated electronic density in atomic spheres:
 ------------------------------------------------
 Atom  Sphere_radius  Integrated_density
    1        2.00000          1.71398638
    2        2.00000          1.73212766

---OUTPUT-----------------------------------------------------------------------

 Cartesian coordinates (xcart) [bohr]
  0.00000000000000E+00  0.00000000000000E+00  0.00000000000000E+00
  2.62983741265628E+00  2.62983741265628E+00  2.62983741265628E+00
 Reduced coordinates (xred)
  0.00000000000000E+00  0.00000000000000E+00  0.00000000000000E+00
  2.50000000000000E-01  2.50000000000000E-01  2.50000000000000E-01
 Cartesian forces (fcart) [Ha/bohr]; max,rms= 9.99886E-32 9.99886E-32 (free atoms)
  9.99885520710090E-32 -9.99885520710090E-32  9.99885520710090E-32
 -9.99885520710090E-32  9.99885520710090E-32 -9.99885520710090E-32
 Gradient of E wrt nuclear positions in reduced coordinates (gred)
 -0.00000000000000E+00 -1.05181454029468E-30 -0.00000000000000E+00
 -0.00000000000000E+00  1.05181454029468E-30 -0.00000000000000E+00
 Scale of Primitive Cell (acell) [bohr]
  1.88972613288564E+00  1.88972613288564E+00  1.88972613288564E+00
 Real space primitive translations (rprimd) [bohr]
  0.00000000000000E+00  5.25967482531257E+00  5.25967482531257E+00
  5.25967482531257E+00  0.00000000000000E+00  5.25967482531257E+00
  5.25967482531257E+00  5.25967482531257E+00  0.00000000000000E+00
 Unitary Cell Volume (ucvol) [Bohr^3]=  2.91009174517949E+02
 Angles (23,13,12)= [degrees]
  6.00000000000000E+01  6.00000000000000E+01  6.00000000000000E+01
 Lengths [Bohr]
  7.43830347162937E+00  7.43830347162937E+00  7.43830347162937E+00
 Stress tensor in cartesian coordinates (strten) [Ha/bohr^3]
  1.41837563144107E-04  0.00000000000000E+00  0.00000000000000E+00
  0.00000000000000E+00  1.41837563144107E-04  0.00000000000000E+00
  0.00000000000000E+00  0.00000000000000E+00  1.41837563144108E-04
 Total energy (etotal) [Ha]= -8.46125098425155E+00

--- Iteration: (  2/300) Internal Cycle: (1/1)
--------------------------------------------------------------------------------

---SELF-CONSISTENT-FIELD CONVERGENCE--------------------------------------------

--- !BeginCycle
iteration_state: {dtset: 2, itime: 2, icycle: 1, }
solver: {iscf: 7, nstep: 10, nline: 4, wfoptalg: 0, }
tolerances: {toldfe: 3.67E-11, }
...

     iter   Etot(hartree)      deltaE(h)  residm     vres2
 ETOT  1  -8.4616945336757    -8.462E+00 1.260E-06 1.046E-01
 ETOT  2  -8.4617175011687    -2.297E-05 8.915E-08 7.044E-03
 ETOT  3  -8.4617185750596    -1.074E-06 6.806E-08 2.027E-04
 ETOT  4  -8.4617185927722    -1.771E-08 1.885E-08 8.281E-07
 ETOT  5  -8.4617185928320    -5.977E-11 2.191E-09 5.597E-09
 ETOT  6  -8.4617185928323    -3.482E-13 6.227E-10 5.272E-11
 ETOT  7  -8.4617185928323     5.151E-14 8.450E-11 5.769E-13

 At SCF step    7, etot is converged : 
  for the second time, diff in etot=  5.151E-14 < toldfe=  3.675E-11

 Cartesian components of stress tensor (hartree/bohr^3)
  sigma(1 1)=  1.10616448E-04  sigma(3 2)=  0.00000000E+00
  sigma(2 2)=  1.10616448E-04  sigma(3 1)=  0.00000000E+00
  sigma(3 3)=  1.10616448E-04  sigma(2 1)=  0.00000000E+00


--- !ResultsGS
iteration_state: {dtset: 2, itime: 2, icycle: 1, }
comment   : Summary of ground state results
lattice_vectors:
- [  0.0000000,   5.2372942,   5.2372942, ]
- [  5.2372942,   0.0000000,   5.2372942, ]
- [  5.2372942,   5.2372942,   0.0000000, ]
lattice_lengths: [   7.40665,    7.40665,    7.40665, ]
lattice_angles: [ 60.000,  60.000,  60.000, ] # degrees, (23, 13, 12)
lattice_volume:   2.8731012E+02
convergence: {deltae:  5.151E-14, res2:  5.769E-13, residm:  8.450E-11, diffor: null, }
etotal    :  -8.46171859E+00
entropy   :   0.00000000E+00
fermie    :   1.30972408E-01
cartesian_stress_tensor: # hartree/bohr^3
- [  1.10616448E-04,   0.00000000E+00,   0.00000000E+00, ]
- [  0.00000000E+00,   1.10616448E-04,   0.00000000E+00, ]
- [  0.00000000E+00,   0.00000000E+00,   1.10616448E-04, ]
pressure_GPa:  -3.2544E+00
xred      :
- [ -9.5052E-33,   2.8516E-32,  -9.5052E-33, Si]
- [  2.5000E-01,   2.5000E-01,   2.5000E-01, Si]
cartesian_forces: # hartree/bohr
- [  1.50623751E-31,  -2.51039585E-31,  -1.50623751E-31, ]
- [ -1.50623751E-31,   2.51039585E-31,   1.50623751E-31, ]
force_length_stats: {min:   3.29235330E-31, max:   3.29235330E-31, mean:   3.29235330E-31, }
...

 bonds_lgth_angles : about to open file abo_DS2_TIM2_GEO

 Integrated electronic density in atomic spheres:
 ------------------------------------------------
 Atom  Sphere_radius  Integrated_density
    1        2.00000          1.70246905
    2        2.00000          1.78195687

---OUTPUT-----------------------------------------------------------------------

 Cartesian coordinates (xcart) [bohr]
  9.95630880939672E-32 -9.95630880939673E-32  9.95630880939672E-32
  2.61864712075399E+00  2.61864712075399E+00  2.61864712075399E+00
 Reduced coordinates (xred)
 -9.50520283020224E-33  2.85156084906067E-32 -9.50520283020224E-33
  2.50000000000000E-01  2.50000000000000E-01  2.50000000000000E-01
 Cartesian forces (fcart) [Ha/bohr]; max,rms= 2.51040E-31 1.90084E-31 (free atoms)
  1.50623751281515E-31 -2.51039585469192E-31 -1.50623751281515E-31
 -1.50623751281515E-31  2.51039585469192E-31  1.50623751281515E-31
 Gradient of E wrt nuclear positions in reduced coordinates (gred)
  2.10362908058937E-30 -0.00000000000000E+00  5.25907270147341E-31
 -2.10362908058937E-30  3.50324616081204E-46 -5.25907270147341E-31
 Scale of Primitive Cell (acell) [bohr]
  7.40665254647911E+00  7.40665254647911E+00  7.40665254647911E+00
 Real space primitive translations (rprimd) [bohr]
  0.00000000000000E+00  5.23729424150799E+00  5.23729424150799E+00
  5.23729424150799E+00  0.00000000000000E+00  5.23729424150799E+00
  5.23729424150799E+00  5.23729424150799E+00  0.00000000000000E+00
 Unitary Cell Volume (ucvol) [Bohr^3]=  2.87310116330456E+02
 Angles (23,13,12)= [degrees]
  6.00000000000000E+01  6.00000000000000E+01  6.00000000000000E+01
 Lengths [Bohr]
  7.40665254647911E+00  7.40665254647911E+00  7.40665254647911E+00
 Stress tensor in cartesian coordinates (strten) [Ha/bohr^3]
  1.10616448067762E-04  0.00000000000000E+00  0.00000000000000E+00
  0.00000000000000E+00  1.10616448067763E-04  0.00000000000000E+00
  0.00000000000000E+00  0.00000000000000E+00  1.10616448067762E-04
 Total energy (etotal) [Ha]= -8.46171859283227E+00

 Difference of energy with previous step (new-old):
           Absolute (Ha)=-4.67609E-04
           Relative     =-5.52632E-05

--- Iteration: (  3/300) Internal Cycle: (1/1)
--------------------------------------------------------------------------------

---SELF-CONSISTENT-FIELD CONVERGENCE--------------------------------------------

--- !BeginCycle
iteration_state: {dtset: 2, itime: 3, icycle: 1, }
solver: {iscf: 7, nstep: 10, nline: 4, wfoptalg: 0, }
tolerances: {toldfe: 3.67E-11, }
...

     iter   Etot(hartree)      deltaE(h)  residm     vres2
 ETOT  1  -8.4620988428883    -8.462E+00 9.145E-06 1.160E+00
 ETOT  2  -8.4623494511220    -2.506E-04 8.071E-07 7.271E-02
 ETOT  3  -8.4623603068686    -1.086E-05 7.755E-07 1.999E-03
 ETOT  4  -8.4623604803489    -1.735E-07 1.770E-07 7.961E-06
 ETOT  5  -8.4623604809617    -6.128E-10 2.159E-08 5.822E-08
 ETOT  6  -8.4623604809659    -4.253E-12 5.262E-09 5.095E-10
 ETOT  7  -8.4623604809660    -1.226E-13 7.749E-10 5.850E-12

 At SCF step    7, etot is converged : 
  for the second time, diff in etot=  1.226E-13 < toldfe=  3.675E-11

 Cartesian components of stress tensor (hartree/bohr^3)
  sigma(1 1)= -9.45842066E-06  sigma(3 2)=  0.00000000E+00
  sigma(2 2)= -9.45842066E-06  sigma(3 1)=  0.00000000E+00
  sigma(3 3)= -9.45842066E-06  sigma(2 1)=  0.00000000E+00


--- !ResultsGS
iteration_state: {dtset: 2, itime: 3, icycle: 1, }
comment   : Summary of ground state results
lattice_vectors:
- [  0.0000000,   5.1623815,   5.1623815, ]
- [  5.1623815,   0.0000000,   5.1623815, ]
- [  5.1623815,   5.1623815,   0.0000000, ]
lattice_lengths: [   7.30071,    7.30071,    7.30071, ]
lattice_angles: [ 60.000,  60.000,  60.000, ] # degrees, (23, 13, 12)
lattice_volume:   2.7515682E+02
convergence: {deltae: -1.226E-13, res2:  5.850E-12, residm:  7.749E-10, diffor: null, }
etotal    :  -8.46236048E+00
entropy   :   0.00000000E+00
fermie    :   1.43698224E-01
cartesian_stress_tensor: # hartree/bohr^3
- [ -9.45842066E-06,   0.00000000E+00,   0.00000000E+00, ]
- [  0.00000000E+00,  -9.45842066E-06,   0.00000000E+00, ]
- [  0.00000000E+00,   0.00000000E+00,  -9.45842066E-06, ]
pressure_GPa:   2.7828E-01
xred      :
- [ -2.3677E-31,   1.3182E-31,   1.1155E-32, Si]
- [  2.5000E-01,   2.5000E-01,   2.5000E-01, Si]
cartesian_forces: # hartree/bohr
- [  1.22247596E-30,  -4.07491987E-31,  -1.22247596E-30, ]
- [ -1.22247596E-30,   4.07491987E-31,   1.22247596E-30, ]
force_length_stats: {min:   1.77621639E-30, max:   1.77621639E-30, mean:   1.77621639E-30, }
...

 bonds_lgth_angles : about to open file abo_DS2_TIM3_GEO

 Integrated electronic density in atomic spheres:
 ------------------------------------------------
 Atom  Sphere_radius  Integrated_density
    1        2.00000          1.77635598
    2        2.00000          1.77001392

---OUTPUT-----------------------------------------------------------------------

 Cartesian coordinates (xcart) [bohr]
  7.38086706150266E-31 -1.16471853298108E-30 -5.41808774342170E-31
  2.58119073462107E+00  2.58119073462107E+00  2.58119073462107E+00
 Reduced coordinates (xred)
 -2.36771926681388E-31  1.31818664786600E-31  1.11554084289965E-32
  2.50000000000000E-01  2.50000000000000E-01  2.50000000000000E-01
 Cartesian forces (fcart) [Ha/bohr]; max,rms= 1.22248E-30 1.02550E-30 (free atoms)
  1.22247595985861E-30 -4.07491986619537E-31 -1.22247595985861E-30
 -1.22247595985861E-30  4.07491986619537E-31  1.22247595985861E-30
 Gradient of E wrt nuclear positions in reduced coordinates (gred)
  8.41451632235746E-30 -0.00000000000000E+00 -4.20725816117873E-30
 -8.41451632235746E-30 -0.00000000000000E+00  4.20725816117873E-30
 Scale of Primitive Cell (acell) [bohr]
  7.30070988794578E+00  7.30070988794578E+00  7.30070988794578E+00
 Real space primitive translations (rprimd) [bohr]
  0.00000000000000E+00  5.16238146924214E+00  5.16238146924214E+00
  5.16238146924214E+00  0.00000000000000E+00  5.16238146924214E+00
  5.16238146924214E+00  5.16238146924214E+00  0.00000000000000E+00
 Unitary Cell Volume (ucvol) [Bohr^3]=  2.75156815898146E+02
 Angles (23,13,12)= [degrees]
  6.00000000000000E+01  6.00000000000000E+01  6.00000000000000E+01
 Lengths [Bohr]
  7.30070988794578E+00  7.30070988794578E+00  7.30070988794578E+00
 Stress tensor in cartesian coordinates (strten) [Ha/bohr^3]
 -9.45842066288729E-06  0.00000000000000E+00  0.00000000000000E+00
  0.00000000000000E+00 -9.45842066288729E-06  0.00000000000000E+00
  0.00000000000000E+00  0.00000000000000E+00 -9.45842066288729E-06
 Total energy (etotal) [Ha]= -8.46236048096604E+00

 Difference of energy with previous step (new-old):
           Absolute (Ha)=-6.41888E-04
           Relative     =-7.58550E-05

--- Iteration: (  4/300) Internal Cycle: (1/1)
--------------------------------------------------------------------------------

---SELF-CONSISTENT-FIELD CONVERGENCE--------------------------------------------

--- !BeginCycle
iteration_state: {dtset: 2, itime: 4, icycle: 1, }
solver: {iscf: 7, nstep: 10, nline: 4, wfoptalg: 0, }
tolerances: {toldfe: 3.67E-11, }
...

     iter   Etot(hartree)      deltaE(h)  residm     vres2
 ETOT  1  -8.4623630146436    -8.462E+00 2.222E-08 6.762E-03
 ETOT  2  -8.4623644867891    -1.472E-06 5.199E-09 4.178E-04
 ETOT  3  -8.4623645489791    -6.219E-08 3.790E-09 1.179E-05
 ETOT  4  -8.4623645500126    -1.033E-09 1.084E-09 4.595E-08
 ETOT  5  -8.4623645500161    -3.437E-12 1.072E-10 3.187E-10
 ETOT  6  -8.4623645500162    -9.592E-14 3.227E-11 2.672E-12

 At SCF step    6, etot is converged : 
  for the second time, diff in etot=  9.592E-14 < toldfe=  3.675E-11

 Cartesian components of stress tensor (hartree/bohr^3)
  sigma(1 1)=  4.69019046E-07  sigma(3 2)=  0.00000000E+00
  sigma(2 2)=  4.69019046E-07  sigma(3 1)=  0.00000000E+00
  sigma(3 3)=  4.69019046E-07  sigma(2 1)=  0.00000000E+00


--- !ResultsGS
iteration_state: {dtset: 2, itime: 4, icycle: 1, }
comment   : Summary of ground state results
lattice_vectors:
- [  0.0000000,   5.1680517,   5.1680517, ]
- [  5.1680517,   0.0000000,   5.1680517, ]
- [  5.1680517,   5.1680517,   0.0000000, ]
lattice_lengths: [   7.30873,    7.30873,    7.30873, ]
lattice_angles: [ 60.000,  60.000,  60.000, ] # degrees, (23, 13, 12)
lattice_volume:   2.7606449E+02
convergence: {deltae: -9.592E-14, res2:  2.672E-12, residm:  3.227E-11, diffor: null, }
etotal    :  -8.46236455E+00
entropy   :   0.00000000E+00
fermie    :   1.42711089E-01
cartesian_stress_tensor: # hartree/bohr^3
- [  4.69019046E-07,   0.00000000E+00,   0.00000000E+00, ]
- [  0.00000000E+00,   4.69019046E-07,   0.00000000E+00, ]
- [  0.00000000E+00,   0.00000000E+00,   4.69019046E-07, ]
pressure_GPa:  -1.3799E-02
xred      :
- [ -4.6953E-31,   1.6094E-31,   1.8567E-31, Si]
- [  2.5000E-01,   2.5000E-01,   2.5000E-01, Si]
cartesian_forces: # hartree/bohr
- [  9.15851021E-31,  -9.15851021E-31,  -4.07044898E-31, ]
- [ -9.15851021E-31,   9.15851021E-31,   4.07044898E-31, ]
force_length_stats: {min:   1.35766407E-30, max:   1.35766407E-30, mean:   1.35766407E-30, }
...

 bonds_lgth_angles : about to open file abo_DS2_TIM4_GEO

 Integrated electronic density in atomic spheres:
 ------------------------------------------------
 Atom  Sphere_radius  Integrated_density
    1        2.00000          1.77925738
    2        2.00000          1.77292012

---OUTPUT-----------------------------------------------------------------------

 Cartesian coordinates (xcart) [bohr]
  1.79128454920040E-30 -1.46701089287963E-30 -1.59479103037070E-30
  2.58402585325881E+00  2.58402585325881E+00  2.58402585325881E+00
 Reduced coordinates (xred)
 -4.69527662264904E-31  1.60941154053413E-31  1.85666165478886E-31
  2.50000000000000E-01  2.50000000000000E-01  2.50000000000000E-01
 Cartesian forces (fcart) [Ha/bohr]; max,rms= 9.15851E-31 7.83848E-31 (free atoms)
  9.15851020870574E-31 -9.15851020870574E-31 -4.07044898164699E-31
 -9.15851020870574E-31  9.15851020870574E-31  4.07044898164699E-31
 Gradient of E wrt nuclear positions in reduced coordinates (gred)
  6.83679451191544E-30 -2.62953635073671E-30 -0.00000000000000E+00
 -6.83679451191544E-30  2.62953635073671E-30 -0.00000000000000E+00
 Scale of Primitive Cell (acell) [bohr]
  7.30872881440264E+00  7.30872881440264E+00  7.30872881440264E+00
 Real space primitive translations (rprimd) [bohr]
  0.00000000000000E+00  5.16805170651762E+00  5.16805170651762E+00
  5.16805170651762E+00  0.00000000000000E+00  5.16805170651762E+00
  5.16805170651762E+00  5.16805170651762E+00  0.00000000000000E+00
 Unitary Cell Volume (ucvol) [Bohr^3]=  2.76064489282431E+02
 Angles (23,13,12)= [degrees]
  6.00000000000000E+01  6.00000000000000E+01  6.00000000000000E+01
 Lengths [Bohr]
  7.30872881440264E+00  7.30872881440264E+00  7.30872881440264E+00
 Stress tensor in cartesian coordinates (strten) [Ha/bohr^3]
  4.69019046316944E-07  0.00000000000000E+00  0.00000000000000E+00
  0.00000000000000E+00  4.69019046316944E-07  0.00000000000000E+00
  0.00000000000000E+00  0.00000000000000E+00  4.69019046314342E-07
 Total energy (etotal) [Ha]= -8.46236455001615E+00

 Difference of energy with previous step (new-old):
           Absolute (Ha)=-4.06905E-06
           Relative     =-4.80841E-07

 At Broyd/MD step   4, gradients are converged : 
  max grad (force/stress) = 4.6902E-05 < tolmxf= 5.0000E-05 ha/bohr (free atoms)

================================================================================

 ----iterations are completed or convergence reached----

 Mean square residual over all n,k,spin=   65.175E-14; max=  32.273E-12
 reduced coordinates (array xred) for    2 atoms
      -0.000000000000      0.000000000000      0.000000000000
       0.250000000000      0.250000000000      0.250000000000
 rms dE/dt=  4.8959E-30; max dE/dt=  9.4663E-30; dE/dt below (all hartree)
    1       0.000000000000     -0.000000000000     -0.000000000000
    2      -0.000000000000      0.000000000000     -0.000000000000

 cartesian coordinates (angstrom) at end:
    1      0.00000000000000    -0.00000000000000    -0.00000000000000
    2      1.36740758795189     1.36740758795189     1.36740758795189

 cartesian forces (hartree/bohr) at end:
    1      0.00000000000000    -0.00000000000000    -0.00000000000000
    2     -0.00000000000000     0.00000000000000     0.00000000000000
 frms,max,avg= 7.8384772E-31 9.1585102E-31   0.000E+00  0.000E+00  0.000E+00 h/b

 cartesian forces (eV/Angstrom) at end:
    1      0.00000000000000    -0.00000000000000    -0.00000000000000
    2     -0.00000000000000     0.00000000000000     0.00000000000000
 frms,max,avg= 4.0307067E-29 4.7094949E-29   0.000E+00  0.000E+00  0.000E+00 e/A
 length scales=  7.308728814403  7.308728814403  7.308728814403 bohr
              =  3.867612712347  3.867612712347  3.867612712347 angstroms
 prteigrs : about to open file abo_DS2_EIG
 Fermi (or HOMO) energy (hartree) =   0.14271   Average Vxc (hartree)=  -0.33842
 Eigenvalues (hartree) for nkpt=  10  k points:
 kpt#   1, nband=  5, wtk=  0.09375, kpt= -0.1250 -0.2500  0.0000 (reduced coord)
  -0.25447    0.03505    0.10564    0.10795    0.23178
 prteigrs : prtvol=0 or 1, do not print more k-points.


--- !EnergyTerms
iteration_state     : {dtset: 2, itime: 4, icycle: 1, }
comment             : Components of total free energy in Hartree
kinetic             :  3.04233640496498E+00
hartree             :  5.57222560752063E-01
xc                  : -3.08002937754762E+00
Ewald energy        : -8.33861323383950E+00
psp_core            :  5.41509240186859E-01
local_psp           : -2.33258595442703E+00
non_local_psp       :  1.14779580989410E+00
total_energy        : -8.46236455001615E+00
total_energy_eV     : -2.30272650133746E+02
band_energy         : -2.46779408998126E-01
...


 Cartesian components of stress tensor (hartree/bohr^3)
  sigma(1 1)=  4.69019046E-07  sigma(3 2)=  0.00000000E+00
  sigma(2 2)=  4.69019046E-07  sigma(3 1)=  0.00000000E+00
  sigma(3 3)=  4.69019046E-07  sigma(2 1)=  0.00000000E+00

-Cartesian components of stress tensor (GPa)         [Pressure= -1.3799E-02 GPa]
- sigma(1 1)=  1.37990144E-02  sigma(3 2)=  0.00000000E+00
- sigma(2 2)=  1.37990144E-02  sigma(3 1)=  0.00000000E+00
- sigma(3 3)=  1.37990144E-02  sigma(2 1)=  0.00000000E+00

== END DATASET(S) ==============================================================
================================================================================
  
 -outvars: echo values of variables after computation  --------
            acell1     7.3087288923E+00  7.3087288923E+00  7.3087288923E+00 Bohr
            acell2     7.3087288144E+00  7.3087288144E+00  7.3087288144E+00 Bohr
              amu      2.80855000E+01
           diemac      1.20000000E+01
          dilatmx      1.10000000E+00
             ecut      1.46997302E+01 Hartree
           ecutsm      5.00000000E-01 Hartree
           etotal1    -8.4623645500E+00
           etotal2    -8.4623645500E+00
            fcart1    -0.0000000000E+00 -0.0000000000E+00 -0.0000000000E+00
                      -0.0000000000E+00 -0.0000000000E+00 -0.0000000000E+00
            fcart2     9.1585102087E-31 -9.1585102087E-31 -4.0704489816E-31
                      -9.1585102087E-31  9.1585102087E-31  4.0704489816E-31
-          fftalg         112
           ionmov           2
             iscf1         17
             iscf2          7
              ixc          11
           jdtset        1    2
              kpt     -1.25000000E-01 -2.50000000E-01  0.00000000E+00
                      -1.25000000E-01  5.00000000E-01  0.00000000E+00
                      -2.50000000E-01 -3.75000000E-01  0.00000000E+00
                      -1.25000000E-01 -3.75000000E-01  1.25000000E-01
                      -1.25000000E-01  2.50000000E-01  0.00000000E+00
                      -2.50000000E-01  3.75000000E-01  0.00000000E+00
                      -3.75000000E-01  5.00000000E-01  0.00000000E+00
                      -2.50000000E-01  5.00000000E-01  1.25000000E-01
                      -1.25000000E-01  0.00000000E+00  0.00000000E+00
                      -3.75000000E-01  0.00000000E+00  0.00000000E+00
         kptrlatt        4   -4    4     -4    4    4     -4   -4    4
          kptrlen      4.20773986E+01
P           mkmem          10
            natom           2
            nband           5
           ndtset           2
            ngfft          30      30      30
             nkpt          10
            nstep          10
             nsym          48
            ntime         300
           ntypat           1
              occ      2.000000  2.000000  2.000000  2.000000  0.000000
          optcell           2
           prtgeo           2
        prtposcar           1
            rprim      0.0000000000E+00  7.0710678119E-01  7.0710678119E-01
                       7.0710678119E-01  0.0000000000E+00  7.0710678119E-01
                       7.0710678119E-01  7.0710678119E-01  0.0000000000E+00
           shiftk      5.00000000E-01  5.00000000E-01  5.00000000E-01
          spgroup         227
           strten1     4.6922220224E-07  4.6922220224E-07  4.6922220224E-07
                       0.0000000000E+00  0.0000000000E+00  0.0000000000E+00
           strten2     4.6901904632E-07  4.6901904632E-07  4.6901904631E-07
                       0.0000000000E+00  0.0000000000E+00  0.0000000000E+00
           symrel      1  0  0   0  1  0   0  0  1      -1  0  0   0 -1  0   0  0 -1
                       0 -1  1   0 -1  0   1 -1  0       0  1 -1   0  1  0  -1  1  0
                      -1  0  0  -1  0  1  -1  1  0       1  0  0   1  0 -1   1 -1  0
                       0  1 -1   1  0 -1   0  0 -1       0 -1  1  -1  0  1   0  0  1
                      -1  0  0  -1  1  0  -1  0  1       1  0  0   1 -1  0   1  0 -1
                       0 -1  1   1 -1  0   0 -1  0       0  1 -1  -1  1  0   0  1  0
                       1  0  0   0  0  1   0  1  0      -1  0  0   0  0 -1   0 -1  0
                       0  1 -1   0  0 -1   1  0 -1       0 -1  1   0  0  1  -1  0  1
                      -1  0  1  -1  1  0  -1  0  0       1  0 -1   1 -1  0   1  0  0
                       0 -1  0   1 -1  0   0 -1  1       0  1  0  -1  1  0   0  1 -1
                       1  0 -1   0  0 -1   0  1 -1      -1  0  1   0  0  1   0 -1  1
                       0  1  0   0  0  1   1  0  0       0 -1  0   0  0 -1  -1  0  0
                       1  0 -1   0  1 -1   0  0 -1      -1  0  1   0 -1  1   0  0  1
                       0 -1  0   0 -1  1   1 -1  0       0  1  0   0  1 -1  -1  1  0
                      -1  0  1  -1  0  0  -1  1  0       1  0 -1   1  0  0   1 -1  0
                       0  1  0   1  0  0   0  0  1       0 -1  0  -1  0  0   0  0 -1
                       0  0 -1   0  1 -1   1  0 -1       0  0  1   0 -1  1  -1  0  1
                       1 -1  0   0 -1  1   0 -1  0      -1  1  0   0  1 -1   0  1  0
                       0  0  1   1  0  0   0  1  0       0  0 -1  -1  0  0   0 -1  0
                      -1  1  0  -1  0  0  -1  0  1       1 -1  0   1  0  0   1  0 -1
                       0  0  1   0  1  0   1  0  0       0  0 -1   0 -1  0  -1  0  0
                       1 -1  0   0 -1  0   0 -1  1      -1  1  0   0  1  0   0  1 -1
                       0  0 -1   1  0 -1   0  1 -1       0  0  1  -1  0  1   0 -1  1
                      -1  1  0  -1  0  1  -1  0  0       1 -1  0   1  0 -1   1  0  0
            tnons      0.0000000  0.0000000  0.0000000     0.2500000  0.2500000  0.2500000
                       0.0000000  0.0000000  0.0000000     0.2500000  0.2500000  0.2500000
                       0.0000000  0.0000000  0.0000000     0.2500000  0.2500000  0.2500000
                       0.0000000  0.0000000  0.0000000     0.2500000  0.2500000  0.2500000
                       0.0000000  0.0000000  0.0000000     0.2500000  0.2500000  0.2500000
                       0.0000000  0.0000000  0.0000000     0.2500000  0.2500000  0.2500000
                       0.0000000  0.0000000  0.0000000     0.2500000  0.2500000  0.2500000
                       0.0000000  0.0000000  0.0000000     0.2500000  0.2500000  0.2500000
                       0.0000000  0.0000000  0.0000000     0.2500000  0.2500000  0.2500000
                       0.0000000  0.0000000  0.0000000     0.2500000  0.2500000  0.2500000
                       0.0000000  0.0000000  0.0000000     0.2500000  0.2500000  0.2500000
                       0.0000000  0.0000000  0.0000000     0.2500000  0.2500000  0.2500000
                       0.0000000  0.0000000  0.0000000     0.2500000  0.2500000  0.2500000
                       0.0000000  0.0000000  0.0000000     0.2500000  0.2500000  0.2500000
                       0.0000000  0.0000000  0.0000000     0.2500000  0.2500000  0.2500000
                       0.0000000  0.0000000  0.0000000     0.2500000  0.2500000  0.2500000
                       0.0000000  0.0000000  0.0000000     0.2500000  0.2500000  0.2500000
                       0.0000000  0.0000000  0.0000000     0.2500000  0.2500000  0.2500000
                       0.0000000  0.0000000  0.0000000     0.2500000  0.2500000  0.2500000
                       0.0000000  0.0000000  0.0000000     0.2500000  0.2500000  0.2500000
                       0.0000000  0.0000000  0.0000000     0.2500000  0.2500000  0.2500000
                       0.0000000  0.0000000  0.0000000     0.2500000  0.2500000  0.2500000
                       0.0000000  0.0000000  0.0000000     0.2500000  0.2500000  0.2500000
                       0.0000000  0.0000000  0.0000000     0.2500000  0.2500000  0.2500000
           toldfe      3.67493254E-11 Hartree
            typat      1  1
              wtk        0.09375    0.09375    0.09375    0.18750    0.09375    0.09375
                         0.09375    0.18750    0.03125    0.03125
           xangst1    -5.2965931771E-31  5.2965931771E-31 -5.2965931771E-31
                       1.3674076025E+00  1.3674076025E+00  1.3674076025E+00
           xangst2     9.4790695754E-31 -7.7630872927E-31 -8.4392706574E-31
                       1.3674075880E+00  1.3674075880E+00  1.3674075880E+00
            xcart1    -1.0009110542E-30  1.0009110542E-30 -1.0009110542E-30
                       2.5840258808E+00  2.5840258808E+00  2.5840258808E+00
            xcart2     1.7912845492E-30 -1.4670108929E-30 -1.5947910304E-30
                       2.5840258533E+00  2.5840258533E+00  2.5840258533E+00
             xred      9.6836399903E-32 -2.9050919971E-31  9.6836399903E-32
                       2.5000000000E-01  2.5000000000E-01  2.5000000000E-01
            znucl       14.00000

================================================================================


- Timing analysis has been suppressed with timopt=0



================================================================================

 Suggested references for the acknowledgment of ABINIT usage.

 The users of ABINIT have little formal obligations with respect to the ABINIT group
 (those specified in the GNU General Public License, http://www.gnu.org/copyleft/gpl.txt).
 However, it is common practice in the scientific literature,
 to acknowledge the efforts of people that have made the research possible.
 In this spirit, please find below suggested citations of work written by ABINIT developers,
 corresponding to implementations inside of ABINIT that you have used in the present run.
 Note also that it will be of great value to readers of publications presenting these results,
 to read papers enabling them to understand the theoretical formalism and details
 of the ABINIT implementation.
 For information on why they are suggested, see also https://docs.abinit.org/theory/acknowledgments.
-
- [1] The Abinit project: Impact, environment and recent developments.
- Computer Phys. Comm. 248, 107042 (2020).
- X.Gonze, B. Amadon, G. Antonius, F.Arnardi, L.Baguet, J.-M.Beuken,
- J.Bieder, F.Bottin, J.Bouchet, E.Bousquet, N.Brouwer, F.Bruneval,
- G.Brunin, T.Cavignac, J.-B. Charraud, Wei Chen, M.Cote, S.Cottenier,
- J.Denier, G.Geneste, Ph.Ghosez, M.Giantomassi, Y.Gillet, O.Gingras,
- D.R.Hamann, G.Hautier, Xu He, N.Helbig, N.Holzwarth, Y.Jia, F.Jollet,
- W.Lafargue-Dit-Hauret, K.Lejaeghere, M.A.L.Marques, A.Martin, C.Martins,
- H.P.C. Miranda, F.Naccarato, K. Persson, G.Petretto, V.Planes, Y.Pouillon,
- S.Prokhorenko, F.Ricci, G.-M.Rignanese, A.H.Romero, M.M.Schmitt, M.Torrent,
- M.J.van Setten, B.Van Troeye, M.J.Verstraete, G.Zerah and J.W.Zwanzig
- Comment: the fifth generic paper describing the ABINIT project.
- Note that a version of this paper, that is not formatted for Computer Phys. Comm. 
- is available at https://www.abinit.org/sites/default/files/ABINIT20.pdf .
- The licence allows the authors to put it on the Web.
- DOI and bibtex: see https://docs.abinit.org/theory/bibliography/#gonze2020
-
- [2] Optimized norm-conserving Vanderbilt pseudopotentials.
- D.R. Hamann, Phys. Rev. B 88, 085117 (2013).
- Comment: Some pseudopotential generated using the ONCVPSP code were used.
- DOI and bibtex: see https://docs.abinit.org/theory/bibliography/#hamann2013
-
- [3] ABINIT: Overview, and focus on selected capabilities
- J. Chem. Phys. 152, 124102 (2020).
- A. Romero, D.C. Allan, B. Amadon, G. Antonius, T. Applencourt, L.Baguet,
- J.Bieder, F.Bottin, J.Bouchet, E.Bousquet, F.Bruneval,
- G.Brunin, D.Caliste, M.Cote,
- J.Denier, C. Dreyer, Ph.Ghosez, M.Giantomassi, Y.Gillet, O.Gingras,
- D.R.Hamann, G.Hautier, F.Jollet, G. Jomard,
- A.Martin, 
- H.P.C. Miranda, F.Naccarato, G.Petretto, N.A. Pike, V.Planes,
- S.Prokhorenko, T. Rangel, F.Ricci, G.-M.Rignanese, M.Royo, M.Stengel, M.Torrent,
- M.J.van Setten, B.Van Troeye, M.J.Verstraete, J.Wiktor, J.W.Zwanziger, and X.Gonze.
- Comment: a global overview of ABINIT, with focus on selected capabilities .
- Note that a version of this paper, that is not formatted for J. Chem. Phys 
- is available at https://www.abinit.org/sites/default/files/ABINIT20_JPC.pdf .
- The licence allows the authors to put it on the Web.
- DOI and bibtex: see https://docs.abinit.org/theory/bibliography/#romero2020
-
- [4] Recent developments in the ABINIT software package.
- Computer Phys. Comm. 205, 106 (2016).
- X.Gonze, F.Jollet, F.Abreu Araujo, D.Adams, B.Amadon, T.Applencourt,
- C.Audouze, J.-M.Beuken, J.Bieder, A.Bokhanchuk, E.Bousquet, F.Bruneval
- D.Caliste, M.Cote, F.Dahm, F.Da Pieve, M.Delaveau, M.Di Gennaro,
- B.Dorado, C.Espejo, G.Geneste, L.Genovese, A.Gerossier, M.Giantomassi,
- Y.Gillet, D.R.Hamann, L.He, G.Jomard, J.Laflamme Janssen, S.Le Roux,
- A.Levitt, A.Lherbier, F.Liu, I.Lukacevic, A.Martin, C.Martins,
- M.J.T.Oliveira, S.Ponce, Y.Pouillon, T.Rangel, G.-M.Rignanese,
- A.H.Romero, B.Rousseau, O.Rubel, A.A.Shukri, M.Stankovski, M.Torrent,
- M.J.Van Setten, B.Van Troeye, M.J.Verstraete, D.Waroquier, J.Wiktor,
- B.Xu, A.Zhou, J.W.Zwanziger.
- Comment: the fourth generic paper describing the ABINIT project.
- Note that a version of this paper, that is not formatted for Computer Phys. Comm. 
- is available at https://www.abinit.org/sites/default/files/ABINIT16.pdf .
- The licence allows the authors to put it on the Web.
- DOI and bibtex: see https://docs.abinit.org/theory/bibliography/#gonze2016
-
- And optionally:
-
- [5] ABINIT: First-principles approach of materials and nanosystem properties.
- Computer Phys. Comm. 180, 2582-2615 (2009).
- X. Gonze, B. Amadon, P.-M. Anglade, J.-M. Beuken, F. Bottin, P. Boulanger, F. Bruneval,
- D. Caliste, R. Caracas, M. Cote, T. Deutsch, L. Genovese, Ph. Ghosez, M. Giantomassi
- S. Goedecker, D.R. Hamann, P. Hermet, F. Jollet, G. Jomard, S. Leroux, M. Mancini, S. Mazevet,
- M.J.T. Oliveira, G. Onida, Y. Pouillon, T. Rangel, G.-M. Rignanese, D. Sangalli, R. Shaltaf,
- M. Torrent, M.J. Verstraete, G. Zerah, J.W. Zwanziger
- Comment: the third generic paper describing the ABINIT project.
- Note that a version of this paper, that is not formatted for Computer Phys. Comm. 
- is available at https://www.abinit.org/sites/default/files/ABINIT_CPC_v10.pdf .
- The licence allows the authors to put it on the Web.
- DOI and bibtex: see https://docs.abinit.org/theory/bibliography/#gonze2009
-
- Proc.   0 individual time (sec): cpu=         67.1  wall=         17.8

================================================================================

 Calculation completed.
.Delivered   0 WARNINGs and  13 COMMENTs to log file.
+Overall time at end (sec) : cpu=         67.1  wall=         17.8
