
.Version 9.6.2 of ABINIT 
.(MPI version, prepared for a x86_64_linux_gnu11.2 computer) 

.Copyright (C) 1998-2021 ABINIT group . 
 ABINIT comes with ABSOLUTELY NO WARRANTY.
 It is free software, and you are welcome to redistribute it
 under certain conditions (GNU General Public License,
 see ~abinit/COPYING or http://www.gnu.org/copyleft/gpl.txt).

 ABINIT is a project of the Universite Catholique de Louvain,
 Corning Inc. and other collaborators, see ~abinit/doc/developers/contributors.txt .
 Please read https://docs.abinit.org/theory/acknowledgments for suggested
 acknowledgments of the ABINIT effort.
 For more information, see https://www.abinit.org .

.Starting date : Tue 22 Apr 2025.
- ( at 14h55 )
  
- The starting date is more than 3 years after the initial release
- of this version of ABINIT, namely Nov 2021.
- This version of ABINIT is not supported anymore.
- Action: please, switch to a more recent version of ABINIT.
- input  file    -> ab.in
- output file    -> ab.abo
- root for input  files -> abi
- root for output files -> abo


 DATASET    1 : space group Fd -3 m (#227); Bravais cF (face-center cubic)
================================================================================
 Values of the parameters that define the memory need for DATASET  1.
     intxc =       0    ionmov =       0      iscf =       7    lmnmax =       6
     lnmax =       6     mgfft =      27  mpssoang =       3    mqgrid =    3001
     natom =       2  nloc_mem =       1    nspden =       1   nspinor =       1
    nsppol =       1      nsym =      48    n1xccc =    2501    ntypat =       1
    occopt =       1   xclevel =       2
-    mband =           5        mffmem =           1         mkmem =          10
       mpw =         792          nfft =       19683          nkpt =          10
================================================================================
P This job should need less than                       7.728 Mbytes of memory.
  Rough estimation (10% accuracy) of disk space for files :
_ WF disk file :      0.606 Mbytes ; DEN or POT disk file :      0.152 Mbytes.
================================================================================


 DATASET    2 : space group Fd -3 m (#227); Bravais cF (face-center cubic)
================================================================================
 Values of the parameters that define the memory need for DATASET  2.
     intxc =       0    ionmov =       0      iscf =      -2    lmnmax =       6
     lnmax =       6     mgfft =      27  mpssoang =       3    mqgrid =    3001
     natom =       2  nloc_mem =       1    nspden =       1   nspinor =       1
    nsppol =       1      nsym =      48    n1xccc =    2501    ntypat =       1
    occopt =       1   xclevel =       2
-    mband =          20        mffmem =           1         mkmem =          64
       mpw =         792          nfft =       19683          nkpt =          64
================================================================================
P This job should need less than                      20.745 Mbytes of memory.
  Rough estimation (10% accuracy) of disk space for files :
_ WF disk file :     15.471 Mbytes ; DEN or POT disk file :      0.152 Mbytes.
================================================================================


 DATASET    3 : space group Fd -3 m (#227); Bravais cF (face-center cubic)
================================================================================
 Values of the parameters that define the memory need for DATASET  3.
     intxc =       0    ionmov =       0      iscf =      -2    lmnmax =       6
     lnmax =       6     mgfft =      27  mpssoang =       3    mqgrid =    3001
     natom =       2  nloc_mem =       1    nspden =       1   nspinor =       1
    nsppol =       1      nsym =      48    n1xccc =    2501    ntypat =       1
    occopt =       1   xclevel =       2
-    mband =          20        mffmem =           1         mkmem =         198
       mpw =         817          nfft =       19683          nkpt =         198
================================================================================
P This job should need less than                      56.329 Mbytes of memory.
  Rough estimation (10% accuracy) of disk space for files :
_ WF disk file :     49.369 Mbytes ; DEN or POT disk file :      0.152 Mbytes.
================================================================================

--------------------------------------------------------------------------------
------------- Echo of variables that govern the present computation ------------
--------------------------------------------------------------------------------
-
- outvars: echo of selected default values                                      
-   iomode0 =  0 , fftalg0 =112 , wfoptalg0 =  0
-
- outvars: echo of global parameters not present in the input file              
-  max_nthreads =    0
-
 -outvars: echo values of preprocessed input variables --------
            acell      1.8897261329E+00  1.8897261329E+00  1.8897261329E+00 Bohr
              amu      2.80855000E+01
          chkprim           0
      chksymbreak           0
           diemac      1.20000000E+01
        dosdeltae1     0.00000000E+00 Hartree
        dosdeltae2     2.57193829E-04 Hartree
        dosdeltae3     0.00000000E+00 Hartree
             ecut      1.46997302E+01 Hartree
-          fftalg         112
           getden1          0
           getden2          1
           getden3          1
           getwfk1          0
           getwfk2          1
           getwfk3          1
           iatsph2       1    2
             iscf1          7
             iscf2         -2
             iscf3         -2
           istwfk3       2    0    0    0    0    0    0    0    0    0
                         0    0    0    0    0    0    0    0    0    0
                         0    0    0    0    0    0    0    0    5    0
                         0    0    0    0    0    0    0    0    0    0
                         0    0    0    0    0    0    0    0    0    0
                       outvar_i_n : Printing only first  50 k-points.
              ixc          11
           jdtset        1    2    3
              kpt1     1.25000000E-01  1.25000000E-01  1.25000000E-01
                       3.75000000E-01  1.25000000E-01  1.25000000E-01
                      -3.75000000E-01  1.25000000E-01  1.25000000E-01
                      -1.25000000E-01  1.25000000E-01  1.25000000E-01
                       3.75000000E-01  3.75000000E-01  1.25000000E-01
                      -3.75000000E-01  3.75000000E-01  1.25000000E-01
                      -1.25000000E-01  3.75000000E-01  1.25000000E-01
                      -3.75000000E-01 -3.75000000E-01  1.25000000E-01
                       3.75000000E-01  3.75000000E-01  3.75000000E-01
                      -3.75000000E-01  3.75000000E-01  3.75000000E-01
              kpt2     1.25000000E-01  1.25000000E-01  1.25000000E-01
                       3.75000000E-01  1.25000000E-01  1.25000000E-01
                      -3.75000000E-01  1.25000000E-01  1.25000000E-01
                      -1.25000000E-01  1.25000000E-01  1.25000000E-01
                       1.25000000E-01  3.75000000E-01  1.25000000E-01
                       3.75000000E-01  3.75000000E-01  1.25000000E-01
                      -3.75000000E-01  3.75000000E-01  1.25000000E-01
                      -1.25000000E-01  3.75000000E-01  1.25000000E-01
                       1.25000000E-01 -3.75000000E-01  1.25000000E-01
                       3.75000000E-01 -3.75000000E-01  1.25000000E-01
                      -3.75000000E-01 -3.75000000E-01  1.25000000E-01
                      -1.25000000E-01 -3.75000000E-01  1.25000000E-01
                       1.25000000E-01 -1.25000000E-01  1.25000000E-01
                       3.75000000E-01 -1.25000000E-01  1.25000000E-01
                      -3.75000000E-01 -1.25000000E-01  1.25000000E-01
                      -1.25000000E-01 -1.25000000E-01  1.25000000E-01
                       1.25000000E-01  1.25000000E-01  3.75000000E-01
                       3.75000000E-01  1.25000000E-01  3.75000000E-01
                      -3.75000000E-01  1.25000000E-01  3.75000000E-01
                      -1.25000000E-01  1.25000000E-01  3.75000000E-01
                       1.25000000E-01  3.75000000E-01  3.75000000E-01
                       3.75000000E-01  3.75000000E-01  3.75000000E-01
                      -3.75000000E-01  3.75000000E-01  3.75000000E-01
                      -1.25000000E-01  3.75000000E-01  3.75000000E-01
                       1.25000000E-01 -3.75000000E-01  3.75000000E-01
                       3.75000000E-01 -3.75000000E-01  3.75000000E-01
                      -3.75000000E-01 -3.75000000E-01  3.75000000E-01
                      -1.25000000E-01 -3.75000000E-01  3.75000000E-01
                       1.25000000E-01 -1.25000000E-01  3.75000000E-01
                       3.75000000E-01 -1.25000000E-01  3.75000000E-01
                      -3.75000000E-01 -1.25000000E-01  3.75000000E-01
                      -1.25000000E-01 -1.25000000E-01  3.75000000E-01
                       1.25000000E-01  1.25000000E-01 -3.75000000E-01
                       3.75000000E-01  1.25000000E-01 -3.75000000E-01
                      -3.75000000E-01  1.25000000E-01 -3.75000000E-01
                      -1.25000000E-01  1.25000000E-01 -3.75000000E-01
                       1.25000000E-01  3.75000000E-01 -3.75000000E-01
                       3.75000000E-01  3.75000000E-01 -3.75000000E-01
                      -3.75000000E-01  3.75000000E-01 -3.75000000E-01
                      -1.25000000E-01  3.75000000E-01 -3.75000000E-01
                       1.25000000E-01 -3.75000000E-01 -3.75000000E-01
                       3.75000000E-01 -3.75000000E-01 -3.75000000E-01
                      -3.75000000E-01 -3.75000000E-01 -3.75000000E-01
                      -1.25000000E-01 -3.75000000E-01 -3.75000000E-01
                       1.25000000E-01 -1.25000000E-01 -3.75000000E-01
                       3.75000000E-01 -1.25000000E-01 -3.75000000E-01
                      -3.75000000E-01 -1.25000000E-01 -3.75000000E-01
                      -1.25000000E-01 -1.25000000E-01 -3.75000000E-01
                       1.25000000E-01  1.25000000E-01 -1.25000000E-01
                       3.75000000E-01  1.25000000E-01 -1.25000000E-01
              kpt3     0.00000000E+00  0.00000000E+00  0.00000000E+00
                       1.78571429E-02  0.00000000E+00  1.78571429E-02
                       3.57142857E-02  0.00000000E+00  3.57142857E-02
                       5.35714286E-02  0.00000000E+00  5.35714286E-02
                       7.14285714E-02  0.00000000E+00  7.14285714E-02
                       8.92857143E-02  0.00000000E+00  8.92857143E-02
                       1.07142857E-01  0.00000000E+00  1.07142857E-01
                       1.25000000E-01  0.00000000E+00  1.25000000E-01
                       1.42857143E-01  0.00000000E+00  1.42857143E-01
                       1.60714286E-01  0.00000000E+00  1.60714286E-01
                       1.78571429E-01  0.00000000E+00  1.78571429E-01
                       1.96428571E-01  0.00000000E+00  1.96428571E-01
                       2.14285714E-01  0.00000000E+00  2.14285714E-01
                       2.32142857E-01  0.00000000E+00  2.32142857E-01
                       2.50000000E-01  0.00000000E+00  2.50000000E-01
                       2.67857143E-01  0.00000000E+00  2.67857143E-01
                       2.85714286E-01  0.00000000E+00  2.85714286E-01
                       3.03571429E-01  0.00000000E+00  3.03571429E-01
                       3.21428571E-01  0.00000000E+00  3.21428571E-01
                       3.39285714E-01  0.00000000E+00  3.39285714E-01
                       3.57142857E-01  0.00000000E+00  3.57142857E-01
                       3.75000000E-01  0.00000000E+00  3.75000000E-01
                       3.92857143E-01  0.00000000E+00  3.92857143E-01
                       4.10714286E-01  0.00000000E+00  4.10714286E-01
                       4.28571429E-01  0.00000000E+00  4.28571429E-01
                       4.46428571E-01  0.00000000E+00  4.46428571E-01
                       4.64285714E-01  0.00000000E+00  4.64285714E-01
                       4.82142857E-01  0.00000000E+00  4.82142857E-01
                       5.00000000E-01  0.00000000E+00  5.00000000E-01
                       5.00000000E-01  1.78571429E-02  5.17857143E-01
                       5.00000000E-01  3.57142857E-02  5.35714286E-01
                       5.00000000E-01  5.35714286E-02  5.53571429E-01
                       5.00000000E-01  7.14285714E-02  5.71428571E-01
                       5.00000000E-01  8.92857143E-02  5.89285714E-01
                       5.00000000E-01  1.07142857E-01  6.07142857E-01
                       5.00000000E-01  1.25000000E-01  6.25000000E-01
                       5.00000000E-01  1.42857143E-01  6.42857143E-01
                       5.00000000E-01  1.60714286E-01  6.60714286E-01
                       5.00000000E-01  1.78571429E-01  6.78571429E-01
                       5.00000000E-01  1.96428571E-01  6.96428571E-01
                       5.00000000E-01  2.14285714E-01  7.14285714E-01
                       5.00000000E-01  2.32142857E-01  7.32142857E-01
                       5.00000000E-01  2.50000000E-01  7.50000000E-01
                       4.87500000E-01  2.62500000E-01  7.50000000E-01
                       4.75000000E-01  2.75000000E-01  7.50000000E-01
                       4.62500000E-01  2.87500000E-01  7.50000000E-01
                       4.50000000E-01  3.00000000E-01  7.50000000E-01
                       4.37500000E-01  3.12500000E-01  7.50000000E-01
                       4.25000000E-01  3.25000000E-01  7.50000000E-01
                       4.12500000E-01  3.37500000E-01  7.50000000E-01
                       outvar_i_n : Printing only first  50 k-points.
           kptopt1          1
           kptopt2          3
           kptopt3        -11
         kptrlatt        4    0    0      0    4    0      0    0    4
          kptrlen1     2.97532139E+01
          kptrlen2     2.97532139E+01
          kptrlen3     3.00000000E+01
P           mkmem1         10
P           mkmem2         64
P           mkmem3        198
            natom           2
           natsph2       2
            nband1          5
            nband2         20
            nband3         20
           nbdbuf1          0
           nbdbuf2          2
           nbdbuf3          2
           ndtset           3
           ndivsm1          0
           ndivsm2          0
           ndivsm3         10
            ngfft          27      27      27
             nkpt1         10
             nkpt2         64
             nkpt3        198
            nstep          20
             nsym          48
           ntypat           1
              occ      2.000000  2.000000  2.000000  2.000000  0.000000
           prtden1          1
           prtden2          1
           prtden3          0
           prtdos1          0
           prtdos2          3
           prtdos3          0
          prtdosm1          0
          prtdosm2          1
          prtdosm3          0
           prtelf1          0
           prtelf2          2
           prtelf3          0
            rprim      0.0000000000E+00  2.7833000422E+00  2.7833000422E+00
                       2.7833000422E+00  0.0000000000E+00  2.7833000422E+00
                       2.7833000422E+00  2.7833000422E+00  0.0000000000E+00
           shiftk      5.00000000E-01  5.00000000E-01  5.00000000E-01
          spgroup         227
           symrel      1  0  0   0  1  0   0  0  1      -1  0  0   0 -1  0   0  0 -1
                       0 -1  1   0 -1  0   1 -1  0       0  1 -1   0  1  0  -1  1  0
                      -1  0  0  -1  0  1  -1  1  0       1  0  0   1  0 -1   1 -1  0
                       0  1 -1   1  0 -1   0  0 -1       0 -1  1  -1  0  1   0  0  1
                      -1  0  0  -1  1  0  -1  0  1       1  0  0   1 -1  0   1  0 -1
                       0 -1  1   1 -1  0   0 -1  0       0  1 -1  -1  1  0   0  1  0
                       1  0  0   0  0  1   0  1  0      -1  0  0   0  0 -1   0 -1  0
                       0  1 -1   0  0 -1   1  0 -1       0 -1  1   0  0  1  -1  0  1
                      -1  0  1  -1  1  0  -1  0  0       1  0 -1   1 -1  0   1  0  0
                       0 -1  0   1 -1  0   0 -1  1       0  1  0  -1  1  0   0  1 -1
                       1  0 -1   0  0 -1   0  1 -1      -1  0  1   0  0  1   0 -1  1
                       0  1  0   0  0  1   1  0  0       0 -1  0   0  0 -1  -1  0  0
                       1  0 -1   0  1 -1   0  0 -1      -1  0  1   0 -1  1   0  0  1
                       0 -1  0   0 -1  1   1 -1  0       0  1  0   0  1 -1  -1  1  0
                      -1  0  1  -1  0  0  -1  1  0       1  0 -1   1  0  0   1 -1  0
                       0  1  0   1  0  0   0  0  1       0 -1  0  -1  0  0   0  0 -1
                       0  0 -1   0  1 -1   1  0 -1       0  0  1   0 -1  1  -1  0  1
                       1 -1  0   0 -1  1   0 -1  0      -1  1  0   0  1 -1   0  1  0
                       0  0  1   1  0  0   0  1  0       0  0 -1  -1  0  0   0 -1  0
                      -1  1  0  -1  0  0  -1  0  1       1 -1  0   1  0  0   1  0 -1
                       0  0  1   0  1  0   1  0  0       0  0 -1   0 -1  0  -1  0  0
                       1 -1  0   0 -1  0   0 -1  1      -1  1  0   0  1  0   0  1 -1
                       0  0 -1   1  0 -1   0  1 -1       0  0  1  -1  0  1   0 -1  1
                      -1  1  0  -1  0  1  -1  0  0       1 -1  0   1  0 -1   1  0  0
            tnons      0.0000000  0.0000000  0.0000000     0.2500000  0.2500000  0.2500000
                       0.0000000  0.0000000  0.0000000     0.2500000  0.2500000  0.2500000
                       0.0000000  0.0000000  0.0000000     0.2500000  0.2500000  0.2500000
                       0.0000000  0.0000000  0.0000000     0.2500000  0.2500000  0.2500000
                       0.0000000  0.0000000  0.0000000     0.2500000  0.2500000  0.2500000
                       0.0000000  0.0000000  0.0000000     0.2500000  0.2500000  0.2500000
                       0.0000000  0.0000000  0.0000000     0.2500000  0.2500000  0.2500000
                       0.0000000  0.0000000  0.0000000     0.2500000  0.2500000  0.2500000
                       0.0000000  0.0000000  0.0000000     0.2500000  0.2500000  0.2500000
                       0.0000000  0.0000000  0.0000000     0.2500000  0.2500000  0.2500000
                       0.0000000  0.0000000  0.0000000     0.2500000  0.2500000  0.2500000
                       0.0000000  0.0000000  0.0000000     0.2500000  0.2500000  0.2500000
                       0.0000000  0.0000000  0.0000000     0.2500000  0.2500000  0.2500000
                       0.0000000  0.0000000  0.0000000     0.2500000  0.2500000  0.2500000
                       0.0000000  0.0000000  0.0000000     0.2500000  0.2500000  0.2500000
                       0.0000000  0.0000000  0.0000000     0.2500000  0.2500000  0.2500000
                       0.0000000  0.0000000  0.0000000     0.2500000  0.2500000  0.2500000
                       0.0000000  0.0000000  0.0000000     0.2500000  0.2500000  0.2500000
                       0.0000000  0.0000000  0.0000000     0.2500000  0.2500000  0.2500000
                       0.0000000  0.0000000  0.0000000     0.2500000  0.2500000  0.2500000
                       0.0000000  0.0000000  0.0000000     0.2500000  0.2500000  0.2500000
                       0.0000000  0.0000000  0.0000000     0.2500000  0.2500000  0.2500000
                       0.0000000  0.0000000  0.0000000     0.2500000  0.2500000  0.2500000
                       0.0000000  0.0000000  0.0000000     0.2500000  0.2500000  0.2500000
           toldfe1     1.00000000E-06 Hartree
           toldfe2     0.00000000E+00 Hartree
           toldfe3     0.00000000E+00 Hartree
           tolwfr1     0.00000000E+00
           tolwfr2     1.00000000E-10
           tolwfr3     1.00000000E-08
            typat      1  1
              wtk1       0.03125    0.09375    0.09375    0.09375    0.09375    0.18750
                         0.18750    0.09375    0.03125    0.09375
              wtk2       0.01563    0.01563    0.01563    0.01563    0.01563    0.01563
                         0.01563    0.01563    0.01563    0.01563    0.01563    0.01563
                         0.01563    0.01563    0.01563    0.01563    0.01563    0.01563
                         0.01563    0.01563    0.01563    0.01563    0.01563    0.01563
                         0.01563    0.01563    0.01563    0.01563    0.01563    0.01563
                         0.01563    0.01563    0.01563    0.01563    0.01563    0.01563
                         0.01563    0.01563    0.01563    0.01563    0.01563    0.01563
                         0.01563    0.01563    0.01563    0.01563    0.01563    0.01563
                         0.01563    0.01563
              wtk3       1.00000    1.00000    1.00000    1.00000    1.00000    1.00000
                         1.00000    1.00000    1.00000    1.00000    1.00000    1.00000
                         1.00000    1.00000    1.00000    1.00000    1.00000    1.00000
                         1.00000    1.00000    1.00000    1.00000    1.00000    1.00000
                         1.00000    1.00000    1.00000    1.00000    1.00000    1.00000
                         1.00000    1.00000    1.00000    1.00000    1.00000    1.00000
                         1.00000    1.00000    1.00000    1.00000    1.00000    1.00000
                         1.00000    1.00000    1.00000    1.00000    1.00000    1.00000
                         1.00000    1.00000
                       outvars : Printing only first  50 k-points.
           xangst      0.0000000000E+00  0.0000000000E+00  0.0000000000E+00
                       1.3916500211E+00  1.3916500211E+00  1.3916500211E+00
            xcart      0.0000000000E+00  0.0000000000E+00  0.0000000000E+00
                       2.6298374127E+00  2.6298374127E+00  2.6298374127E+00
             xred      0.0000000000E+00  0.0000000000E+00  0.0000000000E+00
                       2.5000000000E-01  2.5000000000E-01  2.5000000000E-01
            znucl       14.00000

================================================================================

 chkinp: Checking input parameters for consistency, jdtset=   1.

 chkinp: Checking input parameters for consistency, jdtset=   2.

 chkinp: Checking input parameters for consistency, jdtset=   3.

================================================================================
== DATASET  1 ==================================================================
-   mpi_nproc: 1, omp_nthreads: -1 (-1 if OMP is not activated)


--- !DatasetInfo
iteration_state: {dtset: 1, }
dimensions: {natom: 2, nkpt: 10, mband: 5, nsppol: 1, nspinor: 1, nspden: 1, mpw: 792, }
cutoff_energies: {ecut:  14.7, pawecutdg:  -1.0, }
electrons: {nelect:   8.00000000E+00, charge:   0.00000000E+00, occopt:   1.00000000E+00, tsmear:   1.00000000E-02, }
meta: {optdriver: 0, ionmov: 0, optcell: 0, iscf: 7, paral_kgb: 0, }
...

 Exchange-correlation functional for the present dataset will be:
  GGA: Perdew-Burke-Ernzerhof functional - ixc=11
 Citation for XC functional:
  J.P.Perdew, K.Burke, M.Ernzerhof, PRL 77, 3865 (1996)

 Real(R)+Recip(G) space primitive vectors, cartesian coordinates (Bohr,Bohr^-1):
 R(1)=  0.0000000  5.2596748  5.2596748  G(1)= -0.0950629  0.0950629  0.0950629
 R(2)=  5.2596748  0.0000000  5.2596748  G(2)=  0.0950629 -0.0950629  0.0950629
 R(3)=  5.2596748  5.2596748  0.0000000  G(3)=  0.0950629  0.0950629 -0.0950629
 Unit cell volume ucvol=  2.9100917E+02 bohr^3
 Angles (23,13,12)=  6.00000000E+01  6.00000000E+01  6.00000000E+01 degrees

 getcut: wavevector=  0.0000  0.0000  0.0000  ngfft=  27  27  27
         ecut(hartree)=     14.700   => boxcut(ratio)=   2.02825

--- Pseudopotential description ------------------------------------------------
- pspini: atom type   1  psp file is si.psp8
- pspatm: opening atomic psp file    si.psp8
- Si    ONCVPSP-3.2.3.1  r_core=   1.60303   1.72197   1.91712
- 14.00000   4.00000    170510                znucl, zion, pspdat
    8   11    2    4       600   0.00000      pspcod,pspxc,lmax,lloc,mmax,r2well
    5.99000000000000    4.00000000000000    0.00000000000000   rchrg,fchrg,qchrg
     nproj     2     2     2
     extension_switch     1
  pspatm : epsatm=    9.34321699
         --- l  ekb(1:nproj) -->
             0    5.168965    0.829883
             1    2.571282    0.578307
             2   -2.427311   -0.488097
 pspatm: atomic psp has been read  and splines computed

   1.49491472E+02                                ecore*ucvol(ha*bohr**3)
--------------------------------------------------------------------------------

_setup2: Arith. and geom. avg. npw (full set) are     782.344     782.318

================================================================================

--- !BeginCycle
iteration_state: {dtset: 1, }
solver: {iscf: 7, nstep: 20, nline: 4, wfoptalg: 0, }
tolerances: {toldfe: 1.00E-06, }
...

     iter   Etot(hartree)      deltaE(h)  residm     vres2
 ETOT  1  -8.4563852245092    -8.456E+00 1.092E-02 3.374E+00
 ETOT  2  -8.4612402928456    -4.855E-03 1.828E-03 6.736E-02
 ETOT  3  -8.4612634575207    -2.316E-05 2.142E-04 4.807E-04
 ETOT  4  -8.4612635433798    -8.586E-08 7.411E-05 2.320E-05
 ETOT  5  -8.4612635477501    -4.370E-09 1.022E-05 4.309E-07

 At SCF step    5, etot is converged : 
  for the second time, diff in etot=  4.370E-09 < toldfe=  1.000E-06

 Cartesian components of stress tensor (hartree/bohr^3)
  sigma(1 1)=  1.43891237E-04  sigma(3 2)=  0.00000000E+00
  sigma(2 2)=  1.43891237E-04  sigma(3 1)=  0.00000000E+00
  sigma(3 3)=  1.43891237E-04  sigma(2 1)=  0.00000000E+00


--- !ResultsGS
iteration_state: {dtset: 1, }
comment   : Summary of ground state results
lattice_vectors:
- [  0.0000000,   5.2596748,   5.2596748, ]
- [  5.2596748,   0.0000000,   5.2596748, ]
- [  5.2596748,   5.2596748,   0.0000000, ]
lattice_lengths: [   7.43830,    7.43830,    7.43830, ]
lattice_angles: [ 60.000,  60.000,  60.000, ] # degrees, (23, 13, 12)
lattice_volume:   2.9100917E+02
convergence: {deltae: -4.370E-09, res2:  4.309E-07, residm:  1.022E-05, diffor: null, }
etotal    :  -8.46126355E+00
entropy   :   0.00000000E+00
fermie    :   1.27292185E-01
cartesian_stress_tensor: # hartree/bohr^3
- [  1.43891237E-04,   0.00000000E+00,   0.00000000E+00, ]
- [  0.00000000E+00,   1.43891237E-04,   0.00000000E+00, ]
- [  0.00000000E+00,   0.00000000E+00,   1.43891237E-04, ]
pressure_GPa:  -4.2334E+00
xred      :
- [  0.0000E+00,   0.0000E+00,   0.0000E+00, Si]
- [  2.5000E-01,   2.5000E-01,   2.5000E-01, Si]
cartesian_forces: # hartree/bohr
- [ -1.91978020E-29,   1.91978020E-29,   3.19963367E-29, ]
- [  1.91978020E-29,  -1.91978020E-29,  -3.19963367E-29, ]
force_length_stats: {min:   4.19628021E-29, max:   4.19628021E-29, mean:   4.19628021E-29, }
...

 Integrated electronic density in atomic spheres:
 ------------------------------------------------
 Atom  Sphere_radius  Integrated_density
    1        2.00000          1.70124247
    2        2.00000          1.76165402
================================================================================

 ----iterations are completed or convergence reached----

 Mean square residual over all n,k,spin=   22.452E-08; max=  10.217E-06
 reduced coordinates (array xred) for    2 atoms
       0.000000000000      0.000000000000      0.000000000000
       0.250000000000      0.250000000000      0.250000000000
 rms dE/dt=  3.8474E-28; max dE/dt=  2.6926E-28; dE/dt below (all hartree)
    1      -0.000000000000     -0.000000000000      0.000000000000
    2       0.000000000000     -0.000000000000      0.000000000000

 cartesian coordinates (angstrom) at end:
    1      0.00000000000000     0.00000000000000     0.00000000000000
    2      1.39165002107500     1.39165002107500     1.39165002107500

 cartesian forces (hartree/bohr) at end:
    1     -0.00000000000000     0.00000000000000     0.00000000000000
    2      0.00000000000000    -0.00000000000000    -0.00000000000000
 frms,max,avg= 2.4227235E-29 3.1996337E-29   0.000E+00  0.000E+00  0.000E+00 h/b

 cartesian forces (eV/Angstrom) at end:
    1     -0.00000000000000     0.00000000000000     0.00000000000000
    2      0.00000000000000    -0.00000000000000    -0.00000000000000
 frms,max,avg= 1.2458144E-27 1.6453176E-27   0.000E+00  0.000E+00  0.000E+00 e/A
 length scales=  1.889726132886  1.889726132886  1.889726132886 bohr
              =  1.000000000000  1.000000000000  1.000000000000 angstroms
 prteigrs : about to open file abo_DS1_EIG
 Fermi (or HOMO) energy (hartree) =   0.12729   Average Vxc (hartree)=  -0.33116
 Eigenvalues (hartree) for nkpt=  10  k points:
 kpt#   1, nband=  5, wtk=  0.03125, kpt=  0.1250  0.1250  0.1250 (reduced coord)
  -0.27734    0.07876    0.12729    0.12729    0.21982
 prteigrs : prtvol=0 or 1, do not print more k-points.


--- !EnergyTerms
iteration_state     : {dtset: 1, }
comment             : Components of total free energy in Hartree
kinetic             :  2.97986093308938E+00
hartree             :  5.80721893429573E-01
xc                  : -3.05152986468515E+00
Ewald energy        : -8.19335525187598E+00
psp_core            :  5.13700202344247E-01
local_psp           : -2.42626337224363E+00
non_local_psp       :  1.13560191219147E+00
total_energy        : -8.46126354775009E+00
total_energy_eV     : -2.30242690338453E+02
band_energy         : -3.31472306353767E-01
...


 Cartesian components of stress tensor (hartree/bohr^3)
  sigma(1 1)=  1.43891237E-04  sigma(3 2)=  0.00000000E+00
  sigma(2 2)=  1.43891237E-04  sigma(3 1)=  0.00000000E+00
  sigma(3 3)=  1.43891237E-04  sigma(2 1)=  0.00000000E+00

-Cartesian components of stress tensor (GPa)         [Pressure= -4.2334E+00 GPa]
- sigma(1 1)=  4.23342562E+00  sigma(3 2)=  0.00000000E+00
- sigma(2 2)=  4.23342562E+00  sigma(3 1)=  0.00000000E+00
- sigma(3 3)=  4.23342562E+00  sigma(2 1)=  0.00000000E+00

================================================================================
== DATASET  2 ==================================================================
-   mpi_nproc: 1, omp_nthreads: -1 (-1 if OMP is not activated)


--- !DatasetInfo
iteration_state: {dtset: 2, }
dimensions: {natom: 2, nkpt: 64, mband: 20, nsppol: 1, nspinor: 1, nspden: 1, mpw: 792, }
cutoff_energies: {ecut:  14.7, pawecutdg:  -1.0, }
electrons: {nelect:   8.00000000E+00, charge:   0.00000000E+00, occopt:   1.00000000E+00, tsmear:   1.00000000E-02, }
meta: {optdriver: 0, ionmov: 0, optcell: 0, iscf: -2, paral_kgb: 0, }
...

 mkfilename : getwfk/=0, take file _WFK from output of DATASET   1.

 mkfilename : getden/=0, take file _DEN from output of DATASET   1.

 Exchange-correlation functional for the present dataset will be:
  GGA: Perdew-Burke-Ernzerhof functional - ixc=11
 Citation for XC functional:
  J.P.Perdew, K.Burke, M.Ernzerhof, PRL 77, 3865 (1996)

 Real(R)+Recip(G) space primitive vectors, cartesian coordinates (Bohr,Bohr^-1):
 R(1)=  0.0000000  5.2596748  5.2596748  G(1)= -0.0950629  0.0950629  0.0950629
 R(2)=  5.2596748  0.0000000  5.2596748  G(2)=  0.0950629 -0.0950629  0.0950629
 R(3)=  5.2596748  5.2596748  0.0000000  G(3)=  0.0950629  0.0950629 -0.0950629
 Unit cell volume ucvol=  2.9100917E+02 bohr^3
 Angles (23,13,12)=  6.00000000E+01  6.00000000E+01  6.00000000E+01 degrees

 getcut: wavevector=  0.0000  0.0000  0.0000  ngfft=  27  27  27
         ecut(hartree)=     14.700   => boxcut(ratio)=   2.02825
--------------------------------------------------------------------------------

-inwffil : will read wavefunctions from disk file abo_DS1_WFK

================================================================================
 prteigrs : about to open file abo_DS2_EIG
 Non-SCF case, kpt    1 (  0.12500  0.12500  0.12500), residuals and eigenvalues=
  5.65E-12  3.57E-12  3.13E-12  3.49E-12  4.45E-11  3.45E-11  9.43E-11  7.03E-11
  1.77E-11  9.09E-11  3.12E-11  5.41E-11  2.41E-11  8.04E-11  4.50E-11  6.53E-11
  5.85E-11  2.61E-11  1.87E-07  3.99E-06
 -2.7735E-01  7.8752E-02  1.2729E-01  1.2729E-01  2.1979E-01  2.4444E-01
  2.4444E-01  2.8770E-01  4.0309E-01  4.0309E-01  4.4669E-01  5.2196E-01
  5.8208E-01  5.8208E-01  7.2944E-01  8.8093E-01  8.8093E-01  8.8665E-01
  9.7685E-01  9.7685E-01
  prteigrs : nnsclo,ikpt=   20    1 max resid (incl. the buffer)=  3.98962E-06
 prteigrs : prtvol=0 or 1, do not print more k-points.

  prteigrs : nnsclo,ikpt=   20    2 max resid (incl. the buffer)=  2.25002E-10
  prteigrs : nnsclo,ikpt=   20    3 max resid (incl. the buffer)=  7.09096E-10
  prteigrs : nnsclo,ikpt=   20    4 max resid (incl. the buffer)=  5.84716E-09
  prteigrs : nnsclo,ikpt=   20    5 max resid (incl. the buffer)=  1.70239E-09
  prteigrs : nnsclo,ikpt=   20    6 max resid (incl. the buffer)=  1.03061E-04
  prteigrs : nnsclo,ikpt=   20    7 max resid (incl. the buffer)=  6.54176E-06
  prteigrs : nnsclo,ikpt=   20    8 max resid (incl. the buffer)=  1.11659E-06
  prteigrs : nnsclo,ikpt=   20    9 max resid (incl. the buffer)=  6.28110E-10
  prteigrs : nnsclo,ikpt=   20   10 max resid (incl. the buffer)=  4.17313E-06
  prteigrs : nnsclo,ikpt=   20   11 max resid (incl. the buffer)=  4.44305E-05
  prteigrs : nnsclo,ikpt=   20   12 max resid (incl. the buffer)=  4.52207E-07
  prteigrs : nnsclo,ikpt=   20   13 max resid (incl. the buffer)=  1.12247E-08
  prteigrs : nnsclo,ikpt=   20   14 max resid (incl. the buffer)=  4.12315E-08
  prteigrs : nnsclo,ikpt=   20   15 max resid (incl. the buffer)=  1.47600E-07
  prteigrs : nnsclo,ikpt=   20   16 max resid (incl. the buffer)=  4.50465E-09
  prteigrs : nnsclo,ikpt=   20   17 max resid (incl. the buffer)=  2.93985E-09
  prteigrs : nnsclo,ikpt=   20   18 max resid (incl. the buffer)=  2.55166E-05
  prteigrs : nnsclo,ikpt=   20   19 max resid (incl. the buffer)=  5.23868E-07
  prteigrs : nnsclo,ikpt=   20   20 max resid (incl. the buffer)=  7.59977E-07
  prteigrs : nnsclo,ikpt=   20   21 max resid (incl. the buffer)=  3.87587E-05
  prteigrs : nnsclo,ikpt=   20   22 max resid (incl. the buffer)=  2.10005E-08
  prteigrs : nnsclo,ikpt=   20   23 max resid (incl. the buffer)=  1.68433E-08
  prteigrs : nnsclo,ikpt=   20   24 max resid (incl. the buffer)=  5.62275E-05
  prteigrs : nnsclo,ikpt=   20   25 max resid (incl. the buffer)=  4.73096E-08
  prteigrs : nnsclo,ikpt=   20   26 max resid (incl. the buffer)=  7.20289E-09
  prteigrs : nnsclo,ikpt=   20   27 max resid (incl. the buffer)=  2.20320E-08
  prteigrs : nnsclo,ikpt=   20   28 max resid (incl. the buffer)=  2.07007E-06
  prteigrs : nnsclo,ikpt=   20   29 max resid (incl. the buffer)=  3.88012E-08
  prteigrs : nnsclo,ikpt=   20   30 max resid (incl. the buffer)=  2.62817E-05
  prteigrs : nnsclo,ikpt=   20   31 max resid (incl. the buffer)=  6.61725E-06
  prteigrs : nnsclo,ikpt=   20   32 max resid (incl. the buffer)=  1.15797E-09
  prteigrs : nnsclo,ikpt=   20   33 max resid (incl. the buffer)=  2.78423E-08
  prteigrs : nnsclo,ikpt=   20   34 max resid (incl. the buffer)=  8.19891E-07
  prteigrs : nnsclo,ikpt=   20   35 max resid (incl. the buffer)=  7.84821E-06
  prteigrs : nnsclo,ikpt=   20   36 max resid (incl. the buffer)=  5.76266E-08
  prteigrs : nnsclo,ikpt=   20   37 max resid (incl. the buffer)=  8.44205E-06
  prteigrs : nnsclo,ikpt=   20   38 max resid (incl. the buffer)=  5.57259E-08
  prteigrs : nnsclo,ikpt=   20   39 max resid (incl. the buffer)=  2.88499E-08
  prteigrs : nnsclo,ikpt=   20   40 max resid (incl. the buffer)=  4.29038E-07
  prteigrs : nnsclo,ikpt=   20   41 max resid (incl. the buffer)=  4.57286E-05
  prteigrs : nnsclo,ikpt=   20   42 max resid (incl. the buffer)=  3.30439E-08
  prteigrs : nnsclo,ikpt=   20   43 max resid (incl. the buffer)=  5.14213E-08
  prteigrs : nnsclo,ikpt=   20   44 max resid (incl. the buffer)=  7.13894E-05
  prteigrs : nnsclo,ikpt=   20   45 max resid (incl. the buffer)=  7.83381E-08
  prteigrs : nnsclo,ikpt=   20   46 max resid (incl. the buffer)=  1.28297E-06
  prteigrs : nnsclo,ikpt=   20   47 max resid (incl. the buffer)=  1.29936E-05
  prteigrs : nnsclo,ikpt=   20   48 max resid (incl. the buffer)=  4.52589E-10
  prteigrs : nnsclo,ikpt=   20   49 max resid (incl. the buffer)=  2.56342E-10
  prteigrs : nnsclo,ikpt=   20   50 max resid (incl. the buffer)=  3.16057E-07
  prteigrs : nnsclo,ikpt=   20   51 max resid (incl. the buffer)=  2.28082E-07
  prteigrs : nnsclo,ikpt=   20   52 max resid (incl. the buffer)=  1.46635E-08
  prteigrs : nnsclo,ikpt=   20   53 max resid (incl. the buffer)=  3.32942E-07
  prteigrs : nnsclo,ikpt=   20   54 max resid (incl. the buffer)=  2.17270E-04
  prteigrs : nnsclo,ikpt=   20   55 max resid (incl. the buffer)=  6.32042E-06
  prteigrs : nnsclo,ikpt=   20   56 max resid (incl. the buffer)=  1.34209E-08
  prteigrs : nnsclo,ikpt=   20   57 max resid (incl. the buffer)=  6.15464E-07
  prteigrs : nnsclo,ikpt=   20   58 max resid (incl. the buffer)=  3.05121E-05
  prteigrs : nnsclo,ikpt=   20   59 max resid (incl. the buffer)=  1.62085E-05
  prteigrs : nnsclo,ikpt=   20   60 max resid (incl. the buffer)=  1.80712E-09
  prteigrs : nnsclo,ikpt=   20   61 max resid (incl. the buffer)=  2.21448E-10
  prteigrs : nnsclo,ikpt=   20   62 max resid (incl. the buffer)=  1.04757E-09
  prteigrs : nnsclo,ikpt=   20   63 max resid (incl. the buffer)=  1.29373E-09
  prteigrs : nnsclo,ikpt=   20   64 max resid (incl. the buffer)=  4.17855E-07


 Compute ELF
--------------------------------------------------------------------------------

 Compute kinetic energy density

 Compute gradient of the electron density
 Electron Localization Function (ELF) [min:0;max:1]
      Maximum=    9.5177E-01  at reduced coord.    0.6296    0.1111    0.1111
      Minimum=    1.4616E-06  at reduced coord.    0.0000    0.0000    0.0000
   Integrated=    1.2351E+02

--------------------------------------------------------------------------------
 End of ELF section

 scprqt:  WARNING -
  nstep=   20 was not enough non-SCF iterations to converge;
  maximum residual=  1.369E-10 exceeds tolwfr=  1.000E-10


--- !ResultsGS
iteration_state: {dtset: 2, }
comment   : Summary of ground state results
lattice_vectors:
- [  0.0000000,   5.2596748,   5.2596748, ]
- [  5.2596748,   0.0000000,   5.2596748, ]
- [  5.2596748,   5.2596748,   0.0000000, ]
lattice_lengths: [   7.43830,    7.43830,    7.43830, ]
lattice_angles: [ 60.000,  60.000,  60.000, ] # degrees, (23, 13, 12)
lattice_volume:   2.9100917E+02
convergence: {deltae:  0.000E+00, res2:  0.000E+00, residm:  1.369E-10, diffor:  0.000E+00, }
etotal    :  -8.46126355E+00
entropy   :   0.00000000E+00
fermie    :   1.27292185E-01
cartesian_stress_tensor: null
pressure_GPa: null
xred      :
- [  0.0000E+00,   0.0000E+00,   0.0000E+00, Si]
- [  2.5000E-01,   2.5000E-01,   2.5000E-01, Si]
cartesian_forces: null
force_length_stats: {min: null, max: null, mean: null, }
...

 Integrated electronic density in atomic spheres:
 ------------------------------------------------
 Atom  Sphere_radius  Integrated_density
    1        2.00000          1.70124247
    2        2.00000          1.76165402
================================================================================

 ----iterations are completed or convergence reached----

 Mean square residual over all n,k,spin=   40.540E-12; max=  13.689E-11
 reduced coordinates (array xred) for    2 atoms
       0.000000000000      0.000000000000      0.000000000000
       0.250000000000      0.250000000000      0.250000000000

 cartesian coordinates (angstrom) at end:
    1      0.00000000000000     0.00000000000000     0.00000000000000
    2      1.39165002107500     1.39165002107500     1.39165002107500
 length scales=  1.889726132886  1.889726132886  1.889726132886 bohr
              =  1.000000000000  1.000000000000  1.000000000000 angstroms
 prteigrs : about to open file abo_DS2_EIG
 Eigenvalues (hartree) for nkpt=  64  k points:
 kpt#   1, nband= 20, wtk=  0.01563, kpt=  0.1250  0.1250  0.1250 (reduced coord)
  -0.27735    0.07875    0.12729    0.12729    0.21979    0.24444    0.24444    0.28770
   0.40309    0.40309    0.44669    0.52196    0.58208    0.58208    0.72944    0.88093
   0.88093    0.88665    0.97685    0.97685
 prteigrs : prtvol=0 or 1, do not print more k-points.


================================================================================
== DATASET  3 ==================================================================
-   mpi_nproc: 1, omp_nthreads: -1 (-1 if OMP is not activated)


--- !DatasetInfo
iteration_state: {dtset: 3, }
dimensions: {natom: 2, nkpt: 198, mband: 20, nsppol: 1, nspinor: 1, nspden: 1, mpw: 817, }
cutoff_energies: {ecut:  14.7, pawecutdg:  -1.0, }
electrons: {nelect:   8.00000000E+00, charge:   0.00000000E+00, occopt:   1.00000000E+00, tsmear:   1.00000000E-02, }
meta: {optdriver: 0, ionmov: 0, optcell: 0, iscf: -2, paral_kgb: 0, }
...

 mkfilename : getwfk/=0, take file _WFK from output of DATASET   1.

 mkfilename : getden/=0, take file _DEN from output of DATASET   1.

 Exchange-correlation functional for the present dataset will be:
  GGA: Perdew-Burke-Ernzerhof functional - ixc=11
 Citation for XC functional:
  J.P.Perdew, K.Burke, M.Ernzerhof, PRL 77, 3865 (1996)

 Real(R)+Recip(G) space primitive vectors, cartesian coordinates (Bohr,Bohr^-1):
 R(1)=  0.0000000  5.2596748  5.2596748  G(1)= -0.0950629  0.0950629  0.0950629
 R(2)=  5.2596748  0.0000000  5.2596748  G(2)=  0.0950629 -0.0950629  0.0950629
 R(3)=  5.2596748  5.2596748  0.0000000  G(3)=  0.0950629  0.0950629 -0.0950629
 Unit cell volume ucvol=  2.9100917E+02 bohr^3
 Angles (23,13,12)=  6.00000000E+01  6.00000000E+01  6.00000000E+01 degrees

 getcut: wavevector=  0.0000  0.0000  0.0000  ngfft=  27  27  27
         ecut(hartree)=     14.700   => boxcut(ratio)=   2.02825
--------------------------------------------------------------------------------

-inwffil : will read wavefunctions from disk file abo_DS1_WFK

================================================================================
