# -0.2386826914282952  1.0000000000000000
# -0.0108117761530628  0.0000000000000000
#  0.1120929236301293  0.0000000000000000
#  0.1120929236335139  0.0000000000000000
#  0.1120929236374331  0.0000000000000000
#  0.1401094845078886  0.0000000000000000
#  0.1401094846309961  0.0000000000000000
#  0.2288715274173544  0.0000000000000000
#  0.2968070583500058  0.0000000000000000
#  0.2968070583570223  0.0000000000000000
#  0.2968070583576686  0.0000000000000000
#  0.3214552810798147  0.0000000000000000
#  0.3214552811176416  0.0000000000000000
#  0.3214552813084169  0.0000000000000000
#  0.3395040226699397  0.0000000000000000
 DIM-GROUP
 3  1
 PRIMVEC
 5.2917720859E+00   0.0000000000E+00   0.0000000000E+00
 0.0000000000E+00   5.2917720859E+00   0.0000000000E+00
 0.0000000000E+00   0.0000000000E+00   5.2917720859E+00
 PRIMCOORD
           1  1
        1    0.0000000000E+00    0.0000000000E+00    0.0000000000E+00
 ATOMS
        1    0.0000000000E+00    0.0000000000E+00    0.0000000000E+00
 BEGIN_BLOCK_DATAGRID3D
 datagrids
 DATAGRID_3D_DENSITY
          31          31          31
 0.0 0.0 0.0 
 5.2917720859E+00   0.0000000000E+00   0.0000000000E+00
 0.0000000000E+00   5.2917720859E+00   0.0000000000E+00
 0.0000000000E+00   0.0000000000E+00   5.2917720859E+00
 0.19494E-15
 0.80978E+00
 0.26443E+01
 0.44199E+01
 0.55748E+01
 0.61296E+01
 0.62174E+01
 0.58786E+01
 0.51651E+01
 0.42164E+01
 0.31892E+01
 0.21898E+01
 0.12964E+01
 0.59275E+00
 0.14968E+00
 0.37181E-14
 0.14968E+00
 0.59275E+00
 0.12964E+01
 0.21898E+01
 0.31892E+01
 0.42164E+01
 0.51651E+01
 0.58786E+01
 0.62174E+01
 0.61296E+01
 0.55748E+01
 0.44199E+01
 0.26443E+01
 0.80978E+00
 0.19494E-15
 0.76673E-10
 0.75894E+00
 0.24952E+01
 0.42136E+01
 0.53748E+01
 0.59659E+01
 0.60883E+01
 0.57754E+01
 0.50847E+01
 0.41580E+01
 0.31494E+01
 0.21642E+01
 0.12817E+01
 0.58617E+00
 0.14806E+00
 0.66135E-11
 0.14807E+00
 0.58618E+00
 0.12817E+01
 0.21642E+01
 0.31494E+01
 0.41580E+01
 0.50848E+01
 0.57754E+01
 0.60883E+01
 0.59660E+01
 0.53749E+01
 0.42137E+01
 0.24953E+01
 0.75897E+00
 0.76673E-10
 0.25075E-09
 0.63380E+00
 0.21248E+01
 0.36918E+01
 0.48555E+01
 0.55256E+01
 0.57285E+01
 0.54816E+01
 0.48543E+01
 0.39902E+01
 0.30352E+01
 0.20912E+01
 0.12402E+01
 0.56789E+00
 0.14362E+00
 0.24501E-10
 0.14363E+00
 0.56790E+00
 0.12403E+01
 0.20912E+01
 0.30353E+01
 0.39903E+01
 0.48544E+01
 0.54817E+01
 0.57286E+01
 0.55257E+01
 0.48556E+01
 0.36919E+01
 0.21249E+01
 0.63384E+00
 0.25075E-09
 0.41932E-09
 0.49057E+00
 0.16921E+01
 0.30597E+01
 0.41915E+01
 0.49240E+01
 0.52065E+01
 0.50408E+01
 0.45048E+01
 0.37349E+01
 0.28612E+01
 0.19802E+01
 0.11778E+01
 0.54087E+00
 0.13718E+00
 0.50097E-10
 0.13719E+00
 0.54090E+00
 0.11779E+01
 0.19803E+01
 0.28612E+01
 0.37350E+01
 0.45049E+01
 0.50409E+01
 0.52067E+01
 0.49241E+01
 0.41917E+01
 0.30599E+01
 0.16922E+01
 0.49063E+00
 0.41932E-09
 0.52896E-09
 0.37035E+00
 0.13167E+01
 0.24793E+01
 0.35318E+01
 0.42722E+01
 0.46024E+01
 0.45142E+01
 0.40827E+01
 0.34239E+01
 0.26463E+01
 0.18417E+01
 0.10999E+01
 0.50737E+00
 0.12926E+00
 0.78450E-10
 0.12928E+00
 0.50740E+00
 0.10999E+01
 0.18418E+01
 0.26464E+01
 0.34240E+01
 0.40828E+01
 0.45143E+01
 0.46025E+01
 0.42724E+01
 0.35320E+01
 0.24794E+01
 0.13168E+01
 0.37040E+00
 0.52896E-09
 0.58161E-09
 0.28369E+00
 0.10334E+01
 0.20075E+01
 0.29442E+01
 0.36408E+01
 0.39859E+01
 0.39653E+01
 0.36378E+01
 0.30902E+01
 0.24097E+01
 0.16857E+01
 0.10108E+01
 0.46875E+00
 0.12008E+00
 0.10427E-09
 0.12009E+00
 0.46878E+00
 0.10109E+01
 0.16857E+01
 0.24098E+01
 0.30903E+01
 0.36379E+01
 0.39654E+01
 0.39861E+01
 0.36409E+01
 0.29443E+01
 0.20076E+01
 0.10335E+01
 0.28374E+00
 0.58161E-09
 0.58986E-09
 0.22321E+00
 0.82512E+00
 0.16336E+01
 0.24405E+01
 0.30675E+01
 0.34097E+01
 0.34454E+01
 0.32093E+01
 0.27596E+01
 0.21678E+01
 0.15223E+01
 0.91614E+00
 0.42707E+00
 0.10999E+00
 0.12302E-09
 0.11001E+00
 0.42710E+00
 0.91619E+00
 0.15223E+01
 0.21679E+01
 0.27597E+01
 0.32094E+01
 0.34455E+01
 0.34098E+01
 0.30676E+01
 0.24407E+01
 0.16337E+01
 0.82521E+00
 0.22325E+00
 0.58986E-09
 0.55756E-09
 0.17909E+00
 0.66698E+00
 0.13347E+01
 0.20194E+01
 0.25746E+01
 0.29067E+01
 0.29839E+01
 0.28182E+01
 0.24471E+01
 0.19331E+01
 0.13621E+01
 0.82277E+00
 0.38546E+00
 0.99747E-01
 0.13174E-09
 0.99762E-01
 0.38549E+00
 0.82282E+00
 0.13621E+01
 0.19332E+01
 0.24472E+01
 0.28183E+01
 0.29840E+01
 0.29068E+01
 0.25747E+01
 0.20196E+01
 0.13348E+01
 0.66705E+00
 0.17913E+00
 0.55756E-09
 0.48970E-09
 0.14564E+00
 0.54476E+00
 0.10986E+01
 0.16809E+01
 0.21730E+01
 0.24897E+01
 0.25902E+01
 0.24715E+01
 0.21610E+01
 0.17154E+01
 0.12139E+01
 0.73667E+00
 0.34667E+00
 0.90006E-01
 0.12929E-09
 0.90020E-01
 0.34670E+00
 0.73671E+00
 0.12140E+01
 0.17155E+01
 0.21611E+01
 0.24715E+01
 0.25903E+01
 0.24898E+01
 0.21731E+01
 0.16810E+01
 0.10987E+01
 0.54482E+00
 0.14568E+00
 0.48970E-09
 0.39955E-09
 0.12041E+00
 0.45212E+00
 0.91833E+00
 0.14199E+01
 0.18583E+01
 0.21539E+01
 0.22611E+01
 0.21711E+01
 0.19079E+01
 0.15225E+01
 0.10836E+01
 0.66077E+00
 0.31186E+00
 0.81048E-01
 0.11627E-09
 0.81061E-01
 0.31188E+00
 0.66081E+00
 0.10836E+01
 0.15226E+01
 0.19080E+01
 0.21712E+01
 0.22612E+01
 0.21540E+01
 0.18584E+01
 0.14200E+01
 0.91840E+00
 0.45217E+00
 0.12044E+00
 0.39955E-09
 0.30199E-09
 0.10179E+00
 0.38357E+00
 0.78410E+00
 0.12227E+01
 0.16146E+01
 0.18858E+01
 0.19904E+01
 0.19192E+01
 0.16944E+01
 0.13600E+01
 0.97352E+00
 0.59578E+00
 0.28127E+00
 0.72980E-01
 0.94923E-10
 0.72991E-01
 0.28129E+00
 0.59582E+00
 0.97357E+00
 0.13601E+01
 0.16945E+01
 0.19193E+01
 0.19905E+01
 0.18858E+01
 0.16147E+01
 0.12228E+01
 0.78416E+00
 0.38362E+00
 0.10181E+00
 0.30199E-09
 0.20714E-09
 0.88140E-01
 0.33317E+00
 0.68426E+00
 0.10730E+01
 0.14248E+01
 0.16722E+01
 0.17724E+01
 0.17165E+01
 0.15234E+01
 0.12298E+01
 0.88439E+00
 0.54217E+00
 0.25559E+00
 0.66140E-01
 0.68913E-10
 0.66148E-01
 0.25561E+00
 0.54220E+00
 0.88442E+00
 0.12299E+01
 0.15235E+01
 0.17166E+01
 0.17725E+01
 0.16722E+01
 0.14249E+01
 0.10731E+01
 0.68431E+00
 0.33320E+00
 0.88157E-01
 0.20714E-09
 0.12243E-09
 0.78261E-01
 0.29646E+00
 0.61055E+00
 0.96020E+00
 0.12788E+01
 0.15062E+01
 0.16035E+01
 0.15612E+01
 0.13933E+01
 0.11304E+01
 0.81585E+00
 0.50097E+00
 0.23615E+00
 0.61056E-01
 0.42601E-10
 0.61062E-01
 0.23616E+00
 0.50099E+00
 0.81587E+00
 0.11305E+01
 0.13933E+01
 0.15612E+01
 0.16036E+01
 0.15062E+01
 0.12789E+01
 0.96024E+00
 0.61058E+00
 0.29648E+00
 0.78273E-01
 0.12243E-09
 0.55798E-10
 0.71535E-01
 0.27131E+00
 0.55942E+00
 0.88052E+00
 0.11741E+01
 0.13862E+01
 0.14819E+01
 0.14501E+01
 0.13005E+01
 0.10595E+01
 0.76734E+00
 0.47280E+00
 0.22363E+00
 0.57976E-01
 0.20195E-10
 0.57980E-01
 0.22364E+00
 0.47281E+00
 0.76736E+00
 0.10595E+01
 0.13005E+01
 0.14501E+01
 0.14819E+01
 0.13862E+01
 0.11741E+01
 0.88055E+00
 0.55944E+00
 0.27133E+00
 0.71543E-01
 0.55798E-10
 0.13958E-10
 0.67664E-01
 0.25677E+00
 0.52952E+00
 0.83323E+00
 0.11110E+01
 0.13134E+01
 0.14078E+01
 0.13823E+01
 0.12438E+01
 0.10162E+01
 0.73839E+00
 0.45694E+00
 0.21725E+00
 0.56571E-01
 0.51909E-11
 0.56573E-01
 0.21725E+00
 0.45695E+00
 0.73840E+00
 0.10163E+01
 0.12438E+01
 0.13824E+01
 0.14078E+01
 0.13134E+01
 0.11110E+01
 0.83324E+00
 0.52953E+00
 0.25678E+00
 0.67668E-01
 0.13958E-10
 0.12108E-14
 0.66412E-01
 0.25205E+00
 0.51975E+00
 0.81762E+00
 0.10900E+01
 0.12890E+01
 0.13829E+01
 0.13594E+01
 0.12246E+01
 0.10016E+01
 0.72876E+00
 0.45191E+00
 0.21540E+00
 0.56210E-01
 0.11180E-14
 0.56210E-01
 0.21540E+00
 0.45191E+00
 0.72876E+00
 0.10016E+01
 0.12246E+01
 0.13594E+01
 0.13829E+01
 0.12890E+01
 0.10900E+01
 0.81762E+00
 0.51975E+00
 0.25205E+00
 0.66412E-01
 0.12108E-14
 0.14478E-10
 0.67668E-01
 0.25678E+00
 0.52953E+00
 0.83324E+00
 0.11110E+01
 0.13134E+01
 0.14078E+01
 0.13824E+01
 0.12438E+01
 0.10163E+01
 0.73840E+00
 0.45695E+00
 0.21725E+00
 0.56573E-01
 0.54914E-11
 0.56571E-01
 0.21725E+00
 0.45694E+00
 0.73839E+00
 0.10162E+01
 0.12438E+01
 0.13823E+01
 0.14078E+01
 0.13134E+01
 0.11110E+01
 0.83323E+00
 0.52952E+00
 0.25677E+00
 0.67664E-01
 0.14478E-10
 0.56800E-10
 0.71543E-01
 0.27133E+00
 0.55944E+00
 0.88055E+00
 0.11741E+01
 0.13862E+01
 0.14819E+01
 0.14501E+01
 0.13005E+01
 0.10595E+01
 0.76736E+00
 0.47281E+00
 0.22364E+00
 0.57980E-01
 0.20733E-10
 0.57976E-01
 0.22363E+00
 0.47280E+00
 0.76734E+00
 0.10595E+01
 0.13005E+01
 0.14501E+01
 0.14819E+01
 0.13862E+01
 0.11741E+01
 0.88052E+00
 0.55942E+00
 0.27131E+00
 0.71535E-01
 0.56800E-10
 0.12383E-09
 0.78273E-01
 0.29648E+00
 0.61058E+00
 0.96024E+00
 0.12789E+01
 0.15062E+01
 0.16036E+01
 0.15612E+01
 0.13933E+01
 0.11305E+01
 0.81587E+00
 0.50099E+00
 0.23616E+00
 0.61062E-01
 0.43264E-10
 0.61056E-01
 0.23615E+00
 0.50097E+00
 0.81585E+00
 0.11304E+01
 0.13933E+01
 0.15612E+01
 0.16035E+01
 0.15062E+01
 0.12788E+01
 0.96020E+00
 0.61055E+00
 0.29646E+00
 0.78260E-01
 0.12383E-09
 0.20882E-09
 0.88157E-01
 0.33320E+00
 0.68431E+00
 0.10731E+01
 0.14249E+01
 0.16722E+01
 0.17725E+01
 0.17166E+01
 0.15235E+01
 0.12299E+01
 0.88442E+00
 0.54220E+00
 0.25561E+00
 0.66148E-01
 0.69551E-10
 0.66140E-01
 0.25559E+00
 0.54217E+00
 0.88439E+00
 0.12298E+01
 0.15234E+01
 0.17165E+01
 0.17724E+01
 0.16722E+01
 0.14248E+01
 0.10730E+01
 0.68426E+00
 0.33317E+00
 0.88140E-01
 0.20882E-09
 0.30381E-09
 0.10181E+00
 0.38362E+00
 0.78416E+00
 0.12228E+01
 0.16147E+01
 0.18858E+01
 0.19905E+01
 0.19193E+01
 0.16945E+01
 0.13601E+01
 0.97357E+00
 0.59582E+00
 0.28129E+00
 0.72991E-01
 0.95377E-10
 0.72980E-01
 0.28127E+00
 0.59578E+00
 0.97352E+00
 0.13600E+01
 0.16944E+01
 0.19192E+01
 0.19904E+01
 0.18858E+01
 0.16146E+01
 0.12227E+01
 0.78410E+00
 0.38357E+00
 0.10179E+00
 0.30381E-09
 0.40137E-09
 0.12044E+00
 0.45217E+00
 0.91840E+00
 0.14200E+01
 0.18584E+01
 0.21540E+01
 0.22612E+01
 0.21712E+01
 0.19080E+01
 0.15226E+01
 0.10836E+01
 0.66081E+00
 0.31188E+00
 0.81061E-01
 0.11640E-09
 0.81048E-01
 0.31186E+00
 0.66077E+00
 0.10836E+01
 0.15225E+01
 0.19079E+01
 0.21711E+01
 0.22611E+01
 0.21539E+01
 0.18583E+01
 0.14199E+01
 0.91833E+00
 0.45212E+00
 0.12041E+00
 0.40137E-09
 0.49140E-09
 0.14568E+00
 0.54482E+00
 0.10987E+01
 0.16810E+01
 0.21731E+01
 0.24898E+01
 0.25903E+01
 0.24715E+01
 0.21611E+01
 0.17155E+01
 0.12140E+01
 0.73671E+00
 0.34670E+00
 0.90020E-01
 0.12900E-09
 0.90006E-01
 0.34667E+00
 0.73667E+00
 0.12139E+01
 0.17154E+01
 0.21610E+01
 0.24715E+01
 0.25902E+01
 0.24897E+01
 0.21730E+01
 0.16809E+01
 0.10986E+01
 0.54476E+00
 0.14564E+00
 0.49140E-09
 0.55905E-09
 0.17913E+00
 0.66705E+00
 0.13348E+01
 0.20196E+01
 0.25747E+01
 0.29068E+01
 0.29840E+01
 0.28183E+01
 0.24472E+01
 0.19332E+01
 0.13621E+01
 0.82282E+00
 0.38549E+00
 0.99762E-01
 0.13100E-09
 0.99747E-01
 0.38546E+00
 0.82277E+00
 0.13621E+01
 0.19331E+01
 0.24471E+01
 0.28182E+01
 0.29839E+01
 0.29067E+01
 0.25746E+01
 0.20194E+01
 0.13347E+01
 0.66698E+00
 0.17909E+00
 0.55905E-09
 0.59110E-09
 0.22325E+00
 0.82521E+00
 0.16337E+01
 0.24407E+01
 0.30676E+01
 0.34098E+01
 0.34455E+01
 0.32094E+01
 0.27597E+01
 0.21679E+01
 0.15223E+01
 0.91619E+00
 0.42710E+00
 0.11001E+00
 0.12188E-09
 0.10999E+00
 0.42707E+00
 0.91614E+00
 0.15223E+01
 0.21678E+01
 0.27596E+01
 0.32093E+01
 0.34454E+01
 0.34097E+01
 0.30675E+01
 0.24405E+01
 0.16336E+01
 0.82512E+00
 0.22321E+00
 0.59110E-09
 0.58266E-09
 0.28374E+00
 0.10335E+01
 0.20076E+01
 0.29443E+01
 0.36409E+01
 0.39861E+01
 0.39654E+01
 0.36379E+01
 0.30903E+01
 0.24098E+01
 0.16857E+01
 0.10109E+01
 0.46878E+00
 0.12009E+00
 0.10283E-09
 0.12008E+00
 0.46875E+00
 0.10108E+01
 0.16857E+01
 0.24097E+01
 0.30902E+01
 0.36378E+01
 0.39653E+01
 0.39859E+01
 0.36408E+01
 0.29442E+01
 0.20075E+01
 0.10334E+01
 0.28369E+00
 0.58266E-09
 0.52990E-09
 0.37040E+00
 0.13168E+01
 0.24794E+01
 0.35320E+01
 0.42724E+01
 0.46025E+01
 0.45143E+01
 0.40828E+01
 0.34240E+01
 0.26464E+01
 0.18418E+01
 0.10999E+01
 0.50740E+00
 0.12928E+00
 0.76901E-10
 0.12926E+00
 0.50737E+00
 0.10999E+01
 0.18417E+01
 0.26463E+01
 0.34239E+01
 0.40827E+01
 0.45142E+01
 0.46024E+01
 0.42722E+01
 0.35318E+01
 0.24793E+01
 0.13167E+01
 0.37035E+00
 0.52990E-09
 0.42020E-09
 0.49063E+00
 0.16922E+01
 0.30599E+01
 0.41917E+01
 0.49241E+01
 0.52067E+01
 0.50409E+01
 0.45049E+01
 0.37350E+01
 0.28612E+01
 0.19803E+01
 0.11779E+01
 0.54090E+00
 0.13719E+00
 0.48659E-10
 0.13718E+00
 0.54088E+00
 0.11778E+01
 0.19802E+01
 0.28612E+01
 0.37349E+01
 0.45048E+01
 0.50408E+01
 0.52065E+01
 0.49240E+01
 0.41915E+01
 0.30597E+01
 0.16921E+01
 0.49057E+00
 0.42020E-09
 0.25151E-09
 0.63384E+00
 0.21249E+01
 0.36919E+01
 0.48556E+01
 0.55257E+01
 0.57286E+01
 0.54817E+01
 0.48544E+01
 0.39903E+01
 0.30353E+01
 0.20912E+01
 0.12403E+01
 0.56790E+00
 0.14363E+00
 0.23394E-10
 0.14362E+00
 0.56789E+00
 0.12402E+01
 0.20912E+01
 0.30352E+01
 0.39902E+01
 0.48543E+01
 0.54816E+01
 0.57285E+01
 0.55256E+01
 0.48555E+01
 0.36918E+01
 0.21248E+01
 0.63380E+00
 0.25151E-09
 0.77143E-10
 0.75897E+00
 0.24953E+01
 0.42137E+01
 0.53749E+01
 0.59660E+01
 0.60883E+01
 0.57754E+01
 0.50848E+01
 0.41580E+01
 0.31494E+01
 0.21642E+01
 0.12817E+01
 0.58618E+00
 0.14807E+00
 0.60119E-11
 0.14806E+00
 0.58617E+00
 0.12817E+01
 0.21642E+01
 0.31494E+01
 0.41580E+01
 0.50847E+01
 0.57754E+01
 0.60883E+01
 0.59659E+01
 0.53748E+01
 0.42136E+01
 0.24952E+01
 0.75894E+00
 0.77143E-10
 0.19494E-15
 0.80978E+00
 0.26443E+01
 0.44199E+01
 0.55748E+01
 0.61296E+01
 0.62174E+01
 0.58786E+01
 0.51651E+01
 0.42164E+01
 0.31892E+01
 0.21898E+01
 0.12964E+01
 0.59275E+00
 0.14968E+00
 0.37181E-14
 0.14968E+00
 0.59275E+00
 0.12964E+01
 0.21898E+01
 0.31892E+01
 0.42164E+01
 0.51651E+01
 0.58786E+01
 0.62174E+01
 0.61296E+01
 0.55748E+01
 0.44199E+01
 0.26443E+01
 0.80978E+00
 0.19494E-15
 0.23083E-10
 0.75896E+00
 0.24953E+01
 0.42137E+01
 0.53749E+01
 0.59660E+01
 0.60883E+01
 0.57754E+01
 0.50848E+01
 0.41580E+01
 0.31494E+01
 0.21642E+01
 0.12817E+01
 0.58617E+00
 0.14807E+00
 0.17253E-11
 0.14806E+00
 0.58617E+00
 0.12817E+01
 0.21642E+01
 0.31494E+01
 0.41580E+01
 0.50847E+01
 0.57754E+01
 0.60883E+01
 0.59660E+01
 0.53748E+01
 0.42136E+01
 0.24953E+01
 0.75894E+00
 0.23083E-10
 0.14741E-10
 0.71311E+00
 0.23602E+01
 0.40248E+01
 0.51890E+01
 0.58110E+01
 0.59638E+01
 0.56749E+01
 0.50063E+01
 0.41008E+01
 0.31103E+01
 0.21390E+01
 0.12672E+01
 0.57970E+00
 0.14647E+00
 0.14235E-11
 0.14648E+00
 0.57971E+00
 0.12672E+01
 0.21390E+01
 0.31103E+01
 0.41008E+01
 0.50063E+01
 0.56749E+01
 0.59638E+01
 0.58110E+01
 0.51891E+01
 0.40248E+01
 0.23602E+01
 0.71313E+00
 0.14741E-10
 0.12421E-09
 0.59986E+00
 0.20230E+01
 0.35451E+01
 0.47045E+01
 0.53926E+01
 0.56163E+01
 0.53887E+01
 0.47813E+01
 0.39368E+01
 0.29985E+01
 0.20674E+01
 0.12264E+01
 0.56172E+00
 0.14211E+00
 0.12801E-10
 0.14211E+00
 0.56173E+00
 0.12265E+01
 0.20674E+01
 0.29985E+01
 0.39368E+01
 0.47813E+01
 0.53888E+01
 0.56164E+01
 0.53927E+01
 0.47045E+01
 0.35452E+01
 0.20231E+01
 0.59989E+00
 0.12421E-09
 0.26461E-09
 0.46923E+00
 0.16261E+01
 0.29593E+01
 0.40803E+01
 0.48177E+01
 0.51111E+01
 0.49594E+01
 0.44401E+01
 0.36872E+01
 0.28279E+01
 0.19582E+01
 0.11650E+01
 0.53512E+00
 0.13576E+00
 0.32745E-10
 0.13577E+00
 0.53513E+00
 0.11651E+01
 0.19583E+01
 0.28279E+01
 0.36873E+01
 0.44402E+01
 0.49595E+01
 0.51112E+01
 0.48178E+01
 0.40804E+01
 0.29594E+01
 0.16261E+01
 0.46927E+00
 0.26461E-09
 0.37424E-09
 0.35823E+00
 0.12774E+01
 0.24150E+01
 0.34536E+01
 0.41906E+01
 0.45248E+01
 0.44463E+01
 0.40281E+01
 0.33829E+01
 0.26170E+01
 0.18219E+01
 0.10882E+01
 0.50205E+00
 0.12794E+00
 0.56647E-10
 0.12795E+00
 0.50207E+00
 0.10882E+01
 0.18220E+01
 0.26170E+01
 0.33830E+01
 0.40281E+01
 0.44464E+01
 0.45249E+01
 0.41907E+01
 0.34537E+01
 0.24151E+01
 0.12775E+01
 0.35828E+00
 0.37424E-09
 0.43928E-09
 0.27689E+00
 0.10101E+01
 0.19661E+01
 0.28891E+01
 0.35793E+01
 0.39252E+01
 0.39111E+01
 0.35933E+01
 0.30558E+01
 0.23844E+01
 0.16682E+01
 0.10003E+01
 0.46388E+00
 0.11884E+00
 0.79430E-10
 0.11885E+00
 0.46390E+00
 0.10003E+01
 0.16682E+01
 0.23845E+01
 0.30559E+01
 0.35934E+01
 0.39112E+01
 0.39253E+01
 0.35794E+01
 0.28893E+01
 0.19662E+01
 0.10101E+01
 0.27693E+00
 0.43928E-09
 0.46314E-09
 0.21906E+00
 0.81025E+00
 0.16056E+01
 0.24013E+01
 0.30219E+01
 0.33636E+01
 0.34033E+01
 0.31736E+01
 0.27310E+01
 0.21462E+01
 0.15072E+01
 0.90694E+00
 0.42269E+00
 0.10885E+00
 0.96627E-10
 0.10886E+00
 0.42272E+00
 0.90698E+00
 0.15073E+01
 0.21463E+01
 0.27311E+01
 0.31737E+01
 0.34034E+01
 0.33637E+01
 0.30221E+01
 0.24014E+01
 0.16057E+01
 0.81033E+00
 0.21910E+00
 0.46314E-09
 0.44750E-09
 0.17628E+00
 0.65673E+00
 0.13150E+01
 0.19913E+01
 0.25413E+01
 0.28722E+01
 0.29512E+01
 0.27894E+01
 0.24234E+01
 0.19151E+01
 0.13495E+01
 0.81505E+00
 0.38168E+00
 0.98723E-01
 0.10519E-09
 0.98736E-01
 0.38170E+00
 0.81509E+00
 0.13496E+01
 0.19152E+01
 0.24235E+01
 0.27895E+01
 0.29513E+01
 0.28723E+01
 0.25415E+01
 0.19914E+01
 0.13151E+01
 0.65679E+00
 0.17632E+00
 0.44750E-09
 0.39710E-09
 0.14363E+00
 0.53744E+00
 0.10845E+01
 0.16607E+01
 0.21486E+01
 0.24634E+01
 0.25641E+01
 0.24477E+01
 0.21414E+01
 0.17008E+01
 0.12040E+01
 0.73052E+00
 0.34357E+00
 0.89140E-01
 0.10382E-09
 0.89152E-01
 0.34360E+00
 0.73056E+00
 0.12040E+01
 0.17009E+01
 0.21415E+01
 0.24478E+01
 0.25642E+01
 0.24635E+01
 0.21487E+01
 0.16608E+01
 0.10846E+01
 0.53750E+00
 0.14366E+00
 0.39710E-09
 0.32418E-09
 0.11896E+00
 0.44686E+00
 0.90823E+00
 0.14052E+01
 0.18398E+01
 0.21331E+01
 0.22397E+01
 0.21514E+01
 0.18919E+01
 0.15110E+01
 0.10759E+01
 0.65609E+00
 0.30945E+00
 0.80358E-01
 0.92912E-10
 0.80369E-01
 0.30947E+00
 0.65612E+00
 0.10760E+01
 0.15110E+01
 0.18920E+01
 0.21515E+01
 0.22398E+01
 0.21332E+01
 0.18399E+01
 0.14053E+01
 0.90829E+00
 0.44690E+00
 0.11898E+00
 0.32418E-09
 0.24253E-09
 0.10072E+00
 0.37975E+00
 0.77667E+00
 0.12116E+01
 0.16001E+01
 0.18688E+01
 0.19726E+01
 0.19029E+01
 0.16814E+01
 0.13508E+01
 0.96758E+00
 0.59216E+00
 0.27940E+00
 0.72444E-01
 0.74542E-10
 0.72454E-01
 0.27942E+00
 0.59219E+00
 0.96762E+00
 0.13509E+01
 0.16814E+01
 0.19030E+01
 0.19727E+01
 0.18688E+01
 0.16001E+01
 0.12116E+01
 0.77673E+00
 0.37979E+00
 0.10074E+00
 0.24253E-09
 0.16206E-09
 0.87350E-01
 0.33030E+00
 0.67860E+00
 0.10643E+01
 0.14131E+01
 0.16583E+01
 0.17579E+01
 0.17033E+01
 0.15128E+01
 0.12222E+01
 0.87940E+00
 0.53912E+00
 0.25404E+00
 0.65702E-01
 0.52183E-10
 0.65709E-01
 0.25406E+00
 0.53914E+00
 0.87943E+00
 0.12223E+01
 0.15128E+01
 0.17033E+01
 0.17580E+01
 0.16584E+01
 0.14132E+01
 0.10644E+01
 0.67864E+00
 0.33033E+00
 0.87365E-01
 0.16206E-09
 0.90546E-10
 0.77643E-01
 0.29420E+00
 0.60605E+00
 0.95316E+00
 0.12693E+01
 0.14949E+01
 0.15919E+01
 0.15505E+01
 0.13845E+01
 0.11239E+01
 0.81128E+00
 0.49808E+00
 0.23468E+00
 0.60649E-01
 0.30007E-10
 0.60654E-01
 0.23469E+00
 0.49809E+00
 0.81130E+00
 0.11239E+01
 0.13846E+01
 0.15505E+01
 0.15919E+01
 0.14950E+01
 0.12694E+01
 0.95319E+00
 0.60607E+00
 0.29422E+00
 0.77653E-01
 0.90546E-10
 0.36090E-10
 0.71012E-01
 0.26940E+00
 0.55559E+00
 0.87456E+00
 0.11661E+01
 0.13769E+01
 0.14724E+01
 0.14414E+01
 0.12931E+01
 0.10536E+01
 0.76291E+00
 0.46984E+00
 0.22210E+00
 0.57551E-01
 0.12042E-10
 0.57555E-01
 0.22211E+00
 0.46985E+00
 0.76293E+00
 0.10536E+01
 0.12932E+01
 0.14414E+01
 0.14724E+01
 0.13770E+01
 0.11661E+01
 0.87458E+00
 0.55561E+00
 0.26941E+00
 0.71018E-01
 0.36090E-10
 0.54482E-11
 0.67181E-01
 0.25500E+00
 0.52601E+00
 0.82782E+00
 0.11039E+01
 0.13053E+01
 0.13997E+01
 0.13749E+01
 0.12373E+01
 0.10108E+01
 0.73403E+00
 0.45389E+00
 0.21562E+00
 0.56115E-01
 0.16271E-11
 0.56116E-01
 0.21563E+00
 0.45389E+00
 0.73403E+00
 0.10108E+01
 0.12373E+01
 0.13749E+01
 0.13997E+01
 0.13053E+01
 0.11039E+01
 0.82783E+00
 0.52602E+00
 0.25501E+00
 0.67183E-01
 0.54482E-11
 0.19694E-11
 0.65938E-01
 0.25032E+00
 0.51632E+00
 0.81238E+00
 0.10832E+01
 0.12812E+01
 0.13751E+01
 0.13524E+01
 0.12184E+01
 0.99629E+00
 0.72442E+00
 0.44881E+00
 0.21373E+00
 0.55738E-01
 0.10444E-11
 0.55737E-01
 0.21373E+00
 0.44881E+00
 0.72442E+00
 0.99628E+00
 0.12184E+01
 0.13524E+01
 0.13751E+01
 0.12812E+01
 0.10832E+01
 0.81237E+00
 0.51632E+00
 0.25032E+00
 0.65937E-01
 0.19694E-11
 0.26687E-10
 0.67185E-01
 0.25501E+00
 0.52602E+00
 0.82784E+00
 0.11039E+01
 0.13053E+01
 0.13997E+01
 0.13749E+01
 0.12373E+01
 0.10108E+01
 0.73403E+00
 0.45389E+00
 0.21563E+00
 0.56117E-01
 0.11067E-10
 0.56114E-01
 0.21562E+00
 0.45388E+00
 0.73402E+00
 0.10108E+01
 0.12373E+01
 0.13749E+01
 0.13997E+01
 0.13053E+01
 0.11039E+01
 0.82782E+00
 0.52601E+00
 0.25500E+00
 0.67179E-01
 0.26687E-10
 0.79485E-10
 0.71020E-01
 0.26941E+00
 0.55561E+00
 0.87459E+00
 0.11661E+01
 0.13770E+01
 0.14724E+01
 0.14414E+01
 0.12932E+01
 0.10536E+01
 0.76293E+00
 0.46986E+00
 0.22211E+00
 0.57556E-01
 0.30713E-10
 0.57550E-01
 0.22210E+00
 0.46984E+00
 0.76291E+00
 0.10536E+01
 0.12931E+01
 0.14413E+01
 0.14724E+01
 0.13769E+01
 0.11661E+01
 0.87455E+00
 0.55559E+00
 0.26940E+00
 0.71010E-01
 0.79485E-10
 0.15753E-09
 0.77655E-01
 0.29422E+00
 0.60608E+00
 0.95320E+00
 0.12694E+01
 0.14950E+01
 0.15919E+01
 0.15505E+01
 0.13846E+01
 0.11239E+01
 0.81130E+00
 0.49810E+00
 0.23469E+00
 0.60655E-01
 0.57480E-10
 0.60648E-01
 0.23468E+00
 0.49807E+00
 0.81127E+00
 0.11239E+01
 0.13845E+01
 0.15505E+01
 0.15918E+01
 0.14949E+01
 0.12693E+01
 0.95315E+00
 0.60604E+00
 0.29420E+00
 0.77641E-01
 0.15753E-09
 0.25420E-09
 0.87367E-01
 0.33033E+00
 0.67865E+00
 0.10644E+01
 0.14132E+01
 0.16584E+01
 0.17580E+01
 0.17033E+01
 0.15128E+01
 0.12223E+01
 0.87944E+00
 0.53915E+00
 0.25406E+00
 0.65710E-01
 0.87755E-10
 0.65701E-01
 0.25404E+00
 0.53912E+00
 0.87940E+00
 0.12222E+01
 0.15128E+01
 0.17033E+01
 0.17579E+01
 0.16583E+01
 0.14131E+01
 0.10643E+01
 0.67860E+00
 0.33030E+00
 0.87348E-01
 0.25420E-09
 0.36163E-09
 0.10075E+00
 0.37979E+00
 0.77673E+00
 0.12117E+01
 0.16001E+01
 0.18688E+01
 0.19727E+01
 0.19030E+01
 0.16814E+01
 0.13509E+01
 0.96762E+00
 0.59219E+00
 0.27942E+00
 0.72455E-01
 0.11715E-09
 0.72443E-01
 0.27940E+00
 0.59216E+00
 0.96758E+00
 0.13508E+01
 0.16814E+01
 0.19029E+01
 0.19726E+01
 0.18688E+01
 0.16000E+01
 0.12116E+01
 0.77667E+00
 0.37974E+00
 0.10072E+00
 0.36163E-09
 0.47261E-09
 0.11898E+00
 0.44691E+00
 0.90830E+00
 0.14053E+01
 0.18399E+01
 0.21332E+01
 0.22398E+01
 0.21515E+01
 0.18920E+01
 0.15110E+01
 0.10760E+01
 0.65612E+00
 0.30947E+00
 0.80370E-01
 0.14109E-09
 0.80357E-01
 0.30944E+00
 0.65608E+00
 0.10759E+01
 0.15110E+01
 0.18919E+01
 0.21514E+01
 0.22397E+01
 0.21331E+01
 0.18398E+01
 0.14052E+01
 0.90822E+00
 0.44685E+00
 0.11895E+00
 0.47261E-09
 0.57713E-09
 0.14366E+00
 0.53751E+00
 0.10846E+01
 0.16608E+01
 0.21487E+01
 0.24635E+01
 0.25642E+01
 0.24478E+01
 0.21415E+01
 0.17009E+01
 0.12040E+01
 0.73056E+00
 0.34360E+00
 0.89154E-01
 0.15575E-09
 0.89139E-01
 0.34357E+00
 0.73052E+00
 0.12040E+01
 0.17008E+01
 0.21414E+01
 0.24477E+01
 0.25641E+01
 0.24634E+01
 0.21485E+01
 0.16607E+01
 0.10845E+01
 0.53744E+00
 0.14363E+00
 0.57713E-09
 0.65979E-09
 0.17632E+00
 0.65680E+00
 0.13151E+01
 0.19914E+01
 0.25415E+01
 0.28723E+01
 0.29513E+01
 0.27895E+01
 0.24235E+01
 0.19152E+01
 0.13496E+01
 0.81509E+00
 0.38171E+00
 0.98737E-01
 0.15884E-09
 0.98721E-01
 0.38167E+00
 0.81505E+00
 0.13495E+01
 0.19151E+01
 0.24234E+01
 0.27894E+01
 0.29512E+01
 0.28722E+01
 0.25413E+01
 0.19913E+01
 0.13150E+01
 0.65672E+00
 0.17628E+00
 0.65979E-09
 0.70605E-09
 0.21910E+00
 0.81034E+00
 0.16057E+01
 0.24014E+01
 0.30221E+01
 0.33637E+01
 0.34034E+01
 0.31738E+01
 0.27311E+01
 0.21463E+01
 0.15073E+01
 0.90698E+00
 0.42272E+00
 0.10886E+00
 0.14969E-09
 0.10885E+00
 0.42269E+00
 0.90693E+00
 0.15072E+01
 0.21462E+01
 0.27310E+01
 0.31736E+01
 0.34032E+01
 0.33636E+01
 0.30219E+01
 0.24013E+01
 0.16056E+01
 0.81024E+00
 0.21905E+00
 0.70605E-09
 0.71008E-09
 0.27694E+00
 0.10102E+01
 0.19662E+01
 0.28893E+01
 0.35795E+01
 0.39253E+01
 0.39112E+01
 0.35934E+01
 0.30559E+01
 0.23845E+01
 0.16682E+01
 0.10004E+01
 0.46391E+00
 0.11885E+00
 0.12941E-09
 0.11883E+00
 0.46388E+00
 0.10003E+01
 0.16682E+01
 0.23844E+01
 0.30558E+01
 0.35933E+01
 0.39111E+01
 0.39252E+01
 0.35793E+01
 0.28891E+01
 0.19660E+01
 0.10101E+01
 0.27688E+00
 0.71008E-09
 0.66777E-09
 0.35828E+00
 0.12775E+01
 0.24151E+01
 0.34537E+01
 0.41907E+01
 0.45249E+01
 0.44464E+01
 0.40282E+01
 0.33830E+01
 0.26170E+01
 0.18220E+01
 0.10882E+01
 0.50208E+00
 0.12795E+00
 0.10087E-09
 0.12794E+00
 0.50205E+00
 0.10882E+01
 0.18219E+01
 0.26170E+01
 0.33829E+01
 0.40280E+01
 0.44463E+01
 0.45247E+01
 0.41906E+01
 0.34536E+01
 0.24149E+01
 0.12774E+01
 0.35822E+00
 0.66777E-09
 0.56371E-09
 0.46928E+00
 0.16262E+01
 0.29594E+01
 0.40804E+01
 0.48178E+01
 0.51112E+01
 0.49595E+01
 0.44402E+01
 0.36873E+01
 0.28279E+01
 0.19583E+01
 0.11651E+01
 0.53514E+00
 0.13577E+00
 0.68637E-10
 0.13576E+00
 0.53511E+00
 0.11650E+01
 0.19582E+01
 0.28279E+01
 0.36872E+01
 0.44401E+01
 0.49594E+01
 0.51111E+01
 0.48177E+01
 0.40803E+01
 0.29593E+01
 0.16260E+01
 0.46922E+00
 0.56371E-09
 0.38588E-09
 0.59991E+00
 0.20231E+01
 0.35452E+01
 0.47046E+01
 0.53927E+01
 0.56164E+01
 0.53888E+01
 0.47813E+01
 0.39368E+01
 0.29985E+01
 0.20674E+01
 0.12265E+01
 0.56174E+00
 0.14212E+00
 0.38131E-10
 0.14211E+00
 0.56172E+00
 0.12264E+01
 0.20673E+01
 0.29985E+01
 0.39368E+01
 0.47813E+01
 0.53887E+01
 0.56163E+01
 0.53926E+01
 0.47045E+01
 0.35451E+01
 0.20230E+01
 0.59985E+00
 0.38588E-09
 0.17269E-09
 0.71314E+00
 0.23602E+01
 0.40248E+01
 0.51891E+01
 0.58110E+01
 0.59638E+01
 0.56749E+01
 0.50063E+01
 0.41008E+01
 0.31104E+01
 0.21390E+01
 0.12672E+01
 0.57971E+00
 0.14648E+00
 0.14535E-10
 0.14647E+00
 0.57970E+00
 0.12672E+01
 0.21390E+01
 0.31103E+01
 0.41008E+01
 0.50063E+01
 0.56749E+01
 0.59637E+01
 0.58109E+01
 0.51890E+01
 0.40247E+01
 0.23601E+01
 0.71310E+00
 0.17269E-09
 0.23083E-10
 0.75896E+00
 0.24953E+01
 0.42137E+01
 0.53749E+01
 0.59660E+01
 0.60883E+01
 0.57754E+01
 0.50848E+01
 0.41580E+01
 0.31494E+01
 0.21642E+01
 0.12817E+01
 0.58617E+00
 0.14807E+00
 0.17253E-11
 0.14806E+00
 0.58617E+00
 0.12817E+01
 0.21642E+01
 0.31494E+01
 0.41580E+01
 0.50847E+01
 0.57754E+01
 0.60883E+01
 0.59660E+01
 0.53748E+01
 0.42136E+01
 0.24953E+01
 0.75894E+00
 0.23083E-10
 0.75144E-10
 0.63383E+00
 0.21249E+01
 0.36919E+01
 0.48555E+01
 0.55257E+01
 0.57285E+01
 0.54817E+01
 0.48544E+01
 0.39903E+01
 0.30353E+01
 0.20912E+01
 0.12402E+01
 0.56790E+00
 0.14363E+00
 0.68593E-11
 0.14362E+00
 0.56789E+00
 0.12402E+01
 0.20912E+01
 0.30352E+01
 0.39902E+01
 0.48544E+01
 0.54816E+01
 0.57285E+01
 0.55256E+01
 0.48555E+01
 0.36919E+01
 0.21249E+01
 0.63381E+00
 0.75144E-10
 0.43757E-12
 0.59988E+00
 0.20231E+01
 0.35451E+01
 0.47045E+01
 0.53926E+01
 0.56164E+01
 0.53888E+01
 0.47813E+01
 0.39368E+01
 0.29985E+01
 0.20674E+01
 0.12265E+01
 0.56173E+00
 0.14211E+00
 0.18031E-13
 0.14211E+00
 0.56173E+00
 0.12265E+01
 0.20674E+01
 0.29985E+01
 0.39368E+01
 0.47813E+01
 0.53888E+01
 0.56164E+01
 0.53926E+01
 0.47045E+01
 0.35451E+01
 0.20231E+01
 0.59987E+00
 0.43757E-12
 0.41434E-10
 0.51501E+00
 0.17660E+01
 0.31678E+01
 0.43061E+01
 0.50303E+01
 0.53021E+01
 0.51242E+01
 0.45720E+01
 0.37836E+01
 0.28932E+01
 0.19994E+01
 0.11876E+01
 0.54457E+00
 0.13794E+00
 0.50182E-11
 0.13795E+00
 0.54458E+00
 0.11876E+01
 0.19994E+01
 0.28932E+01
 0.37836E+01
 0.45720E+01
 0.51243E+01
 0.53022E+01
 0.50303E+01
 0.43061E+01
 0.31679E+01
 0.17660E+01
 0.51503E+00
 0.41434E-10
 0.13908E-09
 0.41476E+00
 0.14557E+01
 0.26957E+01
 0.37813E+01
 0.45243E+01
 0.48422E+01
 0.47273E+01
 0.42549E+01
 0.35504E+01
 0.27324E+01
 0.18956E+01
 0.11289E+01
 0.51912E+00
 0.13187E+00
 0.19239E-10
 0.13187E+00
 0.51913E+00
 0.11290E+01
 0.18957E+01
 0.27324E+01
 0.35504E+01
 0.42549E+01
 0.47273E+01
 0.48422E+01
 0.45244E+01
 0.37813E+01
 0.26958E+01
 0.14558E+01
 0.41478E+00
 0.13908E-09
 0.23591E-09
 0.32634E+00
 0.11730E+01
 0.22413E+01
 0.32384E+01
 0.39620E+01
 0.43048E+01
 0.42525E+01
 0.38716E+01
 0.32651E+01
 0.25328E+01
 0.17656E+01
 0.10553E+01
 0.48734E+00
 0.12432E+00
 0.38473E-10
 0.12433E+00
 0.48736E+00
 0.10554E+01
 0.17657E+01
 0.25328E+01
 0.32652E+01
 0.38716E+01
 0.42526E+01
 0.43049E+01
 0.39621E+01
 0.32385E+01
 0.22413E+01
 0.11731E+01
 0.32637E+00
 0.23591E-09
 0.30590E-09
 0.25829E+00
 0.94590E+00
 0.18508E+01
 0.27347E+01
 0.34053E+01
 0.37522E+01
 0.37561E+01
 0.34656E+01
 0.29569E+01
 0.23116E+01
 0.16185E+01
 0.97092E+00
 0.45050E+00
 0.11548E+00
 0.57927E-10
 0.11549E+00
 0.45052E+00
 0.97095E+00
 0.16186E+01
 0.23116E+01
 0.29569E+01
 0.34657E+01
 0.37562E+01
 0.37523E+01
 0.34054E+01
 0.27348E+01
 0.18509E+01
 0.94596E+00
 0.25833E+00
 0.30590E-09
 0.34156E-09
 0.20736E+00
 0.76820E+00
 0.15260E+01
 0.22896E+01
 0.28921E+01
 0.32318E+01
 0.32825E+01
 0.30709E+01
 0.26486E+01
 0.20841E+01
 0.14644E+01
 0.88126E+00
 0.41072E+00
 0.10576E+00
 0.73277E-10
 0.10577E+00
 0.41074E+00
 0.88130E+00
 0.14644E+01
 0.20842E+01
 0.26487E+01
 0.30710E+01
 0.32826E+01
 0.32319E+01
 0.28922E+01
 0.22897E+01
 0.15261E+01
 0.76827E+00
 0.20739E+00
 0.34156E-09
 0.34074E-09
 0.16825E+00
 0.62744E+00
 0.12586E+01
 0.19108E+01
 0.24462E+01
 0.27733E+01
 0.28574E+01
 0.27064E+01
 0.23550E+01
 0.18632E+01
 0.13137E+01
 0.79339E+00
 0.37128E+00
 0.95952E-01
 0.81462E-10
 0.95963E-01
 0.37130E+00
 0.79343E+00
 0.13138E+01
 0.18632E+01
 0.23551E+01
 0.27065E+01
 0.28575E+01
 0.27734E+01
 0.24463E+01
 0.19109E+01
 0.12587E+01
 0.62750E+00
 0.16828E+00
 0.34074E-09
 0.30729E-09
 0.13790E+00
 0.51659E+00
 0.10444E+01
 0.16030E+01
 0.20788E+01
 0.23882E+01
 0.24897E+01
 0.23798E+01
 0.20850E+01
 0.16585E+01
 0.11752E+01
 0.71301E+00
 0.33491E+00
 0.86756E-01
 0.81010E-10
 0.86767E-01
 0.33493E+00
 0.71304E+00
 0.11753E+01
 0.16585E+01
 0.20850E+01
 0.23799E+01
 0.24898E+01
 0.23883E+01
 0.20789E+01
 0.16030E+01
 0.10444E+01
 0.51664E+00
 0.13793E+00
 0.30729E-09
 0.25191E-09
 0.11484E+00
 0.43194E+00
 0.87945E+00
 0.13631E+01
 0.17871E+01
 0.20739E+01
 0.21791E+01