# -0.2386826914282952  1.0000000000000000
# -0.0108117761530628  0.0000000000000000
#  0.1120929236301293  0.0000000000000000
#  0.1120929236335139  0.0000000000000000
#  0.1120929236374331  0.0000000000000000
#  0.1401094845078886  0.0000000000000000
#  0.1401094846309961  0.0000000000000000
#  0.2288715274173544  0.0000000000000000
#  0.2968070583500058  0.0000000000000000
#  0.2968070583570223  0.0000000000000000
#  0.2968070583576686  0.0000000000000000
#  0.3214552810798147  0.0000000000000000
#  0.3214552811176416  0.0000000000000000
#  0.3214552813084169  0.0000000000000000
#  0.3395040226699397  0.0000000000000000
 DIM-GROUP
 3  1
 PRIMVEC
 5.2917720859E+00   0.0000000000E+00   0.0000000000E+00
 0.0000000000E+00   5.2917720859E+00   0.0000000000E+00
 0.0000000000E+00   0.0000000000E+00   5.2917720859E+00
 PRIMCOORD
           1  1
        1    0.0000000000E+00    0.0000000000E+00    0.0000000000E+00
 ATOMS
        1    0.0000000000E+00    0.0000000000E+00    0.0000000000E+00
 BEGIN_BLOCK_DATAGRID3D
 datagrids
 DATAGRID_3D_DENSITY
          31          31          31
 0.0 0.0 0.0 
 5.2917720859E+00   0.0000000000E+00   0.0000000000E+00
 0.0000000000E+00   5.2917720859E+00   0.0000000000E+00
 0.0000000000E+00   0.0000000000E+00   5.2917720859E+00
 0.63424E-14
 0.85209E-02
 0.27615E-01
 0.45546E-01
 0.56356E-01
 0.60528E-01
 0.59846E-01
 0.55122E-01
 0.47173E-01
 0.37527E-01
 0.27711E-01
 0.18633E-01
 0.10842E-01
 0.48903E-02
 0.12240E-02
 0.10615E-09
 0.12226E-02
 0.48875E-02
 0.10838E-01
 0.18628E-01
 0.27705E-01
 0.37521E-01
 0.47167E-01
 0.55116E-01
 0.59841E-01
 0.60524E-01
 0.56354E-01
 0.45544E-01
 0.27614E-01
 0.85207E-02
 0.63424E-14
 0.12750E+01
 0.13761E+01
 0.12673E+01
 0.10317E+01
 0.77619E+00
 0.55857E+00
 0.38662E+00
 0.25166E+00
 0.14877E+00
 0.76557E-01
 0.31551E-01
 0.79676E-02
 0.12803E-03
 0.30858E-02
 0.12081E-01
 0.22786E-01
 0.31914E-01
 0.37225E-01
 0.37348E-01
 0.32011E-01
 0.22304E-01
 0.10744E-01
 0.16414E-02
 0.16973E-02
 0.20337E-01
 0.71155E-01
 0.17575E+00
 0.36322E+00
 0.64900E+00
 0.99152E+00
 0.12750E+01
 0.41319E+01
 0.41495E+01
 0.36204E+01
 0.28258E+01
 0.20442E+01
 0.14026E+01
 0.90932E+00
 0.54047E+00
 0.28065E+00
 0.11734E+00
 0.31561E-01
 0.12750E-02
 0.69979E-02
 0.32205E-01
 0.62607E-01
 0.87294E-01
 0.99476E-01
 0.95924E-01
 0.77042E-01
 0.47714E-01
 0.17419E-01
 0.29441E-03
 0.16197E-01
 0.90660E-01
 0.25334E+00
 0.54142E+00
 0.10074E+01
 0.17035E+01
 0.26087E+01
 0.35312E+01
 0.41319E+01
 0.68148E+01
 0.67202E+01
 0.58597E+01
 0.46215E+01
 0.33792E+01
 0.23169E+01
 0.14730E+01
 0.84011E+00
 0.40658E+00
 0.14860E+00
 0.27283E-01
 0.50318E-03
 0.31293E-01
 0.87896E-01
 0.14425E+00
 0.18254E+00
 0.19309E+00
 0.17263E+00
 0.12528E+00
 0.64704E-01
 0.13712E-01
 0.33942E-02
 0.74209E-01
 0.27430E+00
 0.65258E+00
 0.12572E+01
 0.21400E+01
 0.33301E+01
 0.47374E+01
 0.60517E+01
 0.68148E+01
 0.84323E+01
 0.82801E+01
 0.73194E+01
 0.59087E+01
 0.44126E+01
 0.30522E+01
 0.19252E+01
 0.10714E+01
 0.49490E+00
 0.16318E+00
 0.20104E-01
 0.66147E-02
 0.69277E-01
 0.16064E+00
 0.24295E+00
 0.29237E+00
 0.29728E+00
 0.25515E+00
 0.17492E+00
 0.80846E-01
 0.11034E-01
 0.14047E-01
 0.14900E+00
 0.48264E+00
 0.10759E+01
 0.19699E+01
 0.31795E+01
 0.46696E+01
 0.62825E+01
 0.76797E+01
 0.84323E+01
 0.90565E+01
 0.88866E+01
 0.79620E+01
 0.65539E+01
 0.49722E+01
 0.34578E+01
 0.21673E+01
 0.11852E+01
 0.52846E+00
 0.15895E+00
 0.11936E-01
 0.19031E-01
 0.11449E+00
 0.23778E+00
 0.34182E+00
 0.39841E+00
 0.39485E+00
 0.33011E+00
 0.21842E+00
 0.94206E-01
 0.92653E-02
 0.26065E-01
 0.21534E+00
 0.65277E+00
 0.14025E+01
 0.24915E+01
 0.38899E+01
 0.54942E+01
 0.71008E+01
 0.83991E+01
 0.90565E+01
 0.89543E+01
 0.87734E+01
 0.79150E+01
 0.65780E+01
 0.50230E+01
 0.34947E+01
 0.21778E+01
 0.11751E+01
 0.50765E+00
 0.13844E+00
 0.47855E-02
 0.36177E-01
 0.15946E+00
 0.30612E+00
 0.42410E+00
 0.48296E+00
 0.46976E+00
 0.38564E+00
 0.24969E+00
 0.10362E+00
 0.83528E-02
 0.34828E-01
 0.25750E+00
 0.74971E+00
 0.15692E+01
 0.27299E+01
 0.41737E+01
 0.57576E+01
 0.72590E+01
 0.84071E+01
 0.89543E+01
 0.82474E+01
 0.80566E+01
 0.72749E+01
 0.60591E+01
 0.46322E+01
 0.32204E+01
 0.19995E+01
 0.10671E+01
 0.44571E+00
 0.10803E+00
 0.62197E-03
 0.55122E-01
 0.19600E+00
 0.35343E+00
 0.47558E+00
 0.53180E+00
 0.50950E+00
 0.41247E+00
 0.26359E+00
 0.10751E+00
 0.79749E-02
 0.38441E-01
 0.27118E+00
 0.76892E+00
 0.15741E+01
 0.26879E+01
 0.40435E+01
 0.54933E+01
 0.68251E+01
 0.78067E+01
 0.82474E+01
 0.70580E+01
 0.68695E+01
 0.61931E+01
 0.51572E+01
 0.39453E+01
 0.27444E+01
 0.17003E+01
 0.89642E+00
 0.35946E+00
 0.75149E-01
 0.32810E-03
 0.71195E-01
 0.21600E+00
 0.37055E+00
 0.48738E+00
 0.53697E+00
 0.50744E+00
 0.40542E+00
 0.25631E+00
 0.10368E+00
 0.75298E-02
 0.37351E-01
 0.25901E+00
 0.72188E+00
 0.14501E+01
 0.24313E+01
 0.35994E+01
 0.48248E+01
 0.59286E+01
 0.67224E+01
 0.70580E+01
 0.56146E+01
 0.54443E+01
 0.48988E+01
 0.40785E+01
 0.31227E+01
 0.21722E+01
 0.13389E+01
 0.69300E+00
 0.26385E+00
 0.45702E-01
 0.30080E-02
 0.79742E-01
 0.21455E+00
 0.35404E+00
 0.45747E+00
 0.49761E+00
 0.46386E+00
 0.36517E+00
 0.22779E+00
 0.91193E-01
 0.65143E-02
 0.32927E-01
 0.22605E+00
 0.62340E+00
 0.12353E+01
 0.20393E+01
 0.29736E+01
 0.39333E+01
 0.47818E+01
 0.53785E+01
 0.56146E+01
 0.41460E+01
 0.40038E+01
 0.35935E+01
 0.29874E+01
 0.22835E+01
 0.15811E+01
 0.96265E+00
 0.48449E+00
 0.17273E+00
 0.23292E-01
 0.67121E-02
 0.78565E-01
 0.19217E+00
 0.30688E+00
 0.39006E+00
 0.41883E+00
 0.38501E+00
 0.29832E+00
 0.18293E+00
 0.71840E-01
 0.48376E-02
 0.26794E-01
 0.17993E+00
 0.49183E+00
 0.96620E+00
 0.15784E+01
 0.22745E+01
 0.29738E+01
 0.35793E+01
 0.39946E+01
 0.41460E+01
 0.27877E+01
 0.26783E+01
 0.23929E+01
 0.19804E+01
 0.15047E+01
 0.10308E+01
 0.61542E+00
 0.29859E+00
 0.98173E-01
 0.92018E-02
 0.95007E-02
 0.68264E-01
 0.15363E+00
 0.23703E+00
 0.29501E+00
 0.31171E+00
 0.28248E+00
 0.21558E+00
 0.12959E+00
 0.49192E-01
 0.27726E-02
 0.20646E-01
 0.13065E+00
 0.35096E+00
 0.68284E+00
 0.11060E+01
 0.15789E+01
 0.20445E+01
 0.24393E+01
 0.27023E+01
 0.27877E+01
 0.16220E+01
 0.15469E+01
 0.13718E+01
 0.11261E+01
 0.84695E+00
 0.57159E+00
 0.33302E+00
 0.15466E+00
 0.45871E-01
 0.22679E-02
 0.10137E-01
 0.51230E-01
 0.10604E+00
 0.15654E+00
 0.18883E+00
 0.19498E+00
 0.17375E+00
 0.13049E+00
 0.76412E-01
 0.27185E-01
 0.89360E-03
 0.15499E-01
 0.86169E-01
 0.22223E+00
 0.42324E+00
 0.67551E+00
 0.95257E+00
 0.12201E+01
 0.14418E+01
 0.15841E+01
 0.16220E+01
 0.73153E+00
 0.68912E+00
 0.60324E+00
 0.48831E+00
 0.36121E+00
 0.23835E+00
 0.13406E+00
 0.58282E-01
 0.14476E-01
 0.59768E-04
 0.85648E-02
 0.31267E-01
 0.58321E-01
 0.80768E-01
 0.92783E-01
 0.92280E-01
 0.79882E-01
 0.58201E-01
 0.32267E-01
 0.98161E-02
 0.68628E-05
 0.11186E-01
 0.49338E-01
 0.11731E+00
 0.21356E+00
 0.33066E+00
 0.45570E+00
 0.57303E+00
 0.66695E+00
 0.72326E+00
 0.73153E+00
 0.18304E+00
 0.16692E+00
 0.14105E+00
 0.10963E+00
 0.77114E-01
 0.47437E-01
 0.23809E-01
 0.81853E-02
 0.86138E-03
 0.71423E-03
 0.57319E-02
 0.13291E-01
 0.20508E-01
 0.25090E-01
 0.26090E-01
 0.23751E-01
 0.18801E-01
 0.12188E-01
 0.54192E-02
 0.75327E-03
 0.67918E-03
 0.70954E-02
 0.20922E-01
 0.42103E-01
 0.69464E-01
 0.10046E+00
 0.13145E+00
 0.15847E+00
 0.17792E+00
 0.18676E+00
 0.18304E+00
 0.22136E-10
 0.15216E-03
 0.58314E-03
 0.12196E-02
 0.19535E-02
 0.26622E-02
 0.32274E-02
 0.35540E-02
 0.35888E-02
 0.33260E-02
 0.27997E-02
 0.20840E-02
 0.13038E-02
 0.61734E-03
 0.15909E-03
 0.28745E-09
 0.15824E-03
 0.61574E-03
 0.13016E-02
 0.20815E-02
 0.27972E-02
 0.33238E-02
 0.35870E-02
 0.35528E-02
 0.32267E-02
 0.26620E-02
 0.19537E-02
 0.12199E-02
 0.58349E-03
 0.15238E-03
 0.22136E-10
 0.18304E+00
 0.18675E+00
 0.17791E+00
 0.15846E+00
 0.13144E+00
 0.10046E+00
 0.69467E-01
 0.42107E-01
 0.20926E-01
 0.70986E-02
 0.68041E-03
 0.75179E-03
 0.54148E-02
 0.12181E-01
 0.18792E-01
 0.23740E-01
 0.26079E-01
 0.25080E-01
 0.20500E-01
 0.13285E-01
 0.57284E-02
 0.71319E-03
 0.86226E-03
 0.81872E-02
 0.23811E-01
 0.47438E-01
 0.77113E-01
 0.10963E+00
 0.14104E+00
 0.16692E+00
 0.18304E+00
 0.73151E+00
 0.72324E+00
 0.66694E+00
 0.57302E+00
 0.45570E+00
 0.33066E+00
 0.21357E+00
 0.11732E+00
 0.49345E-01
 0.11190E-01
 0.67469E-05
 0.98110E-02
 0.32257E-01
 0.58186E-01
 0.79864E-01
 0.92260E-01
 0.92764E-01
 0.80750E-01
 0.58307E-01
 0.31258E-01
 0.85607E-02
 0.60053E-04
 0.14480E-01
 0.58287E-01
 0.13406E+00
 0.23835E+00
 0.36121E+00
 0.48830E+00
 0.60323E+00
 0.68911E+00
 0.73151E+00
 0.16219E+01
 0.15841E+01
 0.14418E+01
 0.12201E+01
 0.95257E+00
 0.67552E+00
 0.42324E+00
 0.22224E+00
 0.86177E-01
 0.15503E-01
 0.89239E-03
 0.27177E-01
 0.76398E-01
 0.13047E+00
 0.17372E+00
 0.19495E+00
 0.18881E+00
 0.15652E+00
 0.10602E+00
 0.51219E-01
 0.10133E-01
 0.22695E-02
 0.45877E-01
 0.15466E+00
 0.33303E+00
 0.57160E+00
 0.84695E+00
 0.11261E+01
 0.13718E+01
 0.15469E+01
 0.16219E+01
 0.27877E+01
 0.27023E+01
 0.24393E+01
 0.20445E+01
 0.15789E+01
 0.11060E+01
 0.68285E+00
 0.35097E+00
 0.13066E+00
 0.20650E-01
 0.27708E-02
 0.49183E-01
 0.12958E+00
 0.21556E+00
 0.28245E+00
 0.31169E+00
 0.29499E+00
 0.23700E+00
 0.15362E+00
 0.68253E-01
 0.94972E-02
 0.92046E-02
 0.98180E-01
 0.29860E+00
 0.61543E+00
 0.10308E+01
 0.15047E+01
 0.19804E+01
 0.23929E+01
 0.26783E+01
 0.27877E+01
 0.41459E+01
 0.39946E+01
 0.35793E+01
 0.29738E+01
 0.22745E+01
 0.15784E+01
 0.96620E+00
 0.49184E+00
 0.17993E+00
 0.26798E-01
 0.48356E-02
 0.71831E-01
 0.18292E+00
 0.29830E+00
 0.38498E+00
 0.41880E+00
 0.39003E+00
 0.30685E+00
 0.19216E+00
 0.78556E-01
 0.67097E-02
 0.23295E-01
 0.17274E+00
 0.48450E+00
 0.96265E+00
 0.15811E+01
 0.22835E+01
 0.29874E+01
 0.35934E+01
 0.40038E+01
 0.41459E+01
 0.56146E+01
 0.53784E+01
 0.47818E+01
 0.39333E+01
 0.29736E+01
 0.20393E+01
 0.12353E+01
 0.62341E+00
 0.22606E+00
 0.32931E-01
 0.65126E-02
 0.91186E-01
 0.22778E+00
 0.36515E+00
 0.46384E+00
 0.49759E+00
 0.45745E+00
 0.35402E+00
 0.21454E+00
 0.79735E-01
 0.30068E-02
 0.45705E-01
 0.26386E+00
 0.69300E+00
 0.13389E+01
 0.21722E+01
 0.31227E+01
 0.40785E+01
 0.48988E+01
 0.54442E+01
 0.56146E+01
 0.70579E+01
 0.67223E+01
 0.59286E+01
 0.48248E+01
 0.35994E+01
 0.24313E+01
 0.14501E+01
 0.72188E+00
 0.25901E+00
 0.37353E-01
 0.75286E-02
 0.10368E+00
 0.25630E+00
 0.40541E+00
 0.50743E+00
 0.53696E+00
 0.48736E+00
 0.37054E+00
 0.21599E+00
 0.71191E-01
 0.32786E-03
 0.75152E-01
 0.35947E+00
 0.89642E+00
 0.17003E+01
 0.27444E+01
 0.39453E+01
 0.51572E+01
 0.61931E+01
 0.68695E+01
 0.70579E+01
 0.82473E+01
 0.78066E+01
 0.68250E+01
 0.54933E+01
 0.40435E+01
 0.26879E+01
 0.15741E+01
 0.76892E+00
 0.27118E+00
 0.38442E-01
 0.79745E-02
 0.10751E+00
 0.26358E+00
 0.41247E+00
 0.50950E+00
 0.53180E+00
 0.47557E+00
 0.35343E+00
 0.19599E+00
 0.55120E-01
 0.62209E-03
 0.10803E+00
 0.44572E+00
 0.10671E+01
 0.19995E+01
 0.32204E+01
 0.46322E+01
 0.60591E+01
 0.72749E+01
 0.80566E+01
 0.82473E+01
 0.89543E+01
 0.84071E+01
 0.72590E+01
 0.57576E+01
 0.41737E+01
 0.27299E+01
 0.15692E+01
 0.74971E+00
 0.25750E+00
 0.34827E-01
 0.83531E-02
 0.10362E+00
 0.24969E+00
 0.38564E+00
 0.46976E+00
 0.48296E+00
 0.42410E+00
 0.30612E+00
 0.15946E+00
 0.36178E-01
 0.47853E-02
 0.13844E+00
 0.50765E+00
 0.11751E+01
 0.21778E+01
 0.34947E+01
 0.50230E+01
 0.65780E+01
 0.79150E+01
 0.87733E+01
 0.89543E+01
 0.90565E+01
 0.83991E+01
 0.71007E+01
 0.54941E+01
 0.38898E+01
 0.24915E+01
 0.14025E+01
 0.65276E+00
 0.21534E+00
 0.26063E-01
 0.92664E-02
 0.94210E-01
 0.21843E+00
 0.33012E+00
 0.39486E+00
 0.39842E+00
 0.34183E+00
 0.23779E+00
 0.11449E+00
 0.19033E-01
 0.11934E-01
 0.15894E+00
 0.52845E+00
 0.11852E+01
 0.21673E+01
 0.34578E+01
 0.49722E+01
 0.65539E+01
 0.79620E+01
 0.88865E+01
 0.90565E+01
 0.84323E+01
 0.76796E+01
 0.62825E+01
 0.46696E+01
 0.31795E+01
 0.19699E+01
 0.10759E+01
 0.48263E+00
 0.14900E+00
 0.14045E-01
 0.11036E-01
 0.80852E-01
 0.17493E+00
 0.25516E+00
 0.29729E+00
 0.29238E+00
 0.24296E+00
 0.16065E+00
 0.69283E-01
 0.66164E-02
 0.20101E-01
 0.16318E+00
 0.49488E+00
 0.10713E+01
 0.19251E+01
 0.30522E+01
 0.44126E+01
 0.59087E+01
 0.73194E+01
 0.82801E+01
 0.84323E+01
 0.68148E+01
 0.60517E+01
 0.47374E+01
 0.33301E+01
 0.21400E+01
 0.12572E+01
 0.65257E+00
 0.27429E+00
 0.74203E-01
 0.33928E-02
 0.13715E-01
 0.64711E-01
 0.12529E+00
 0.17264E+00
 0.19310E+00
 0.18255E+00
 0.14426E+00
 0.87905E-01
 0.31298E-01
 0.50379E-03
 0.27279E-01
 0.14860E+00
 0.40657E+00
 0.84009E+00
 0.14730E+01
 0.23169E+01
 0.33792E+01
 0.46215E+01
 0.58597E+01
 0.67202E+01
 0.68148E+01
 0.41319E+01
 0.35312E+01
 0.26087E+01
 0.17035E+01
 0.10074E+01
 0.54141E+00
 0.25333E+00
 0.90653E-01
 0.16194E-01
 0.29489E-03
 0.17423E-01
 0.47721E-01
 0.77052E-01
 0.95935E-01
 0.99488E-01
 0.87305E-01
 0.62616E-01
 0.32211E-01
 0.70008E-02
 0.12738E-02
 0.31556E-01
 0.11733E+00
 0.28064E+00
 0.54046E+00
 0.90930E+00
 0.14026E+01
 0.20442E+01
 0.28258E+01
 0.36204E+01
 0.41495E+01
 0.41319E+01
 0.12750E+01
 0.99152E+00
 0.64899E+00
 0.36322E+00
 0.17575E+00
 0.71151E-01
 0.20334E-01
 0.16963E-02
 0.16425E-02
 0.10747E-01
 0.22309E-01
 0.32017E-01
 0.37355E-01
 0.37233E-01
 0.31921E-01
 0.22792E-01
 0.12086E-01
 0.30880E-02
 0.12760E-03
 0.79644E-02
 0.31545E-01
 0.76549E-01
 0.14876E+00
 0.25165E+00
 0.38661E+00
 0.55856E+00
 0.77618E+00
 0.10317E+01
 0.12673E+01
 0.13760E+01
 0.12750E+01
 0.63424E-14
 0.85209E-02
 0.27615E-01
 0.45546E-01
 0.56356E-01
 0.60528E-01
 0.59846E-01
 0.55122E-01
 0.47173E-01
 0.37527E-01
 0.27711E-01
 0.18633E-01
 0.10842E-01
 0.48903E-02
 0.12240E-02
 0.10615E-09
 0.12226E-02
 0.48875E-02
 0.10838E-01
 0.18628E-01
 0.27705E-01
 0.37521E-01
 0.47167E-01
 0.55116E-01
 0.59841E-01
 0.60524E-01
 0.56354E-01
 0.45544E-01
 0.27614E-01
 0.85207E-02
 0.63424E-14
 0.26055E+00
 0.33508E+00
 0.35595E+00
 0.32755E+00
 0.27541E+00
 0.22047E+00
 0.17005E+00
 0.12456E+00
 0.84764E-01
 0.52573E-01
 0.28861E-01
 0.12957E-01
 0.37416E-02
 0.15714E-03
 0.95179E-03
 0.46553E-02
 0.99161E-02
 0.15588E-01
 0.20564E-01
 0.23823E-01
 0.24676E-01
 0.22817E-01
 0.18247E-01
 0.11561E-01
 0.44637E-02
 0.12296E-03
 0.39692E-02
 0.25373E-01
 0.76435E-01
 0.16125E+00
 0.26055E+00
 0.24794E+01
 0.25566E+01
 0.22682E+01
 0.17879E+01
 0.13037E+01
 0.90564E+00
 0.60002E+00
 0.36905E+00
 0.20184E+00
 0.92048E-01
 0.30036E-01
 0.35533E-02
 0.14514E-02
 0.14160E-01
 0.32946E-01
 0.50552E-01
 0.62014E-01
 0.64490E-01
 0.57141E-01
 0.41536E-01
 0.21840E-01
 0.48936E-02
 0.96594E-03
 0.24338E-01
 0.93216E-01
 0.23243E+00
 0.47950E+00
 0.87826E+00
 0.14337E+01
 0.20406E+01
 0.24794E+01
 0.57342E+01
 0.56872E+01
 0.49182E+01
 0.38113E+01
 0.27336E+01
 0.18507E+01
 0.11746E+01
 0.67598E+00
 0.33343E+00
 0.12655E+00
 0.26099E-01
 0.20891E-04
 0.20411E-01
 0.63536E-01
 0.10925E+00
 0.14282E+00
 0.15565E+00
 0.14436E+00
 0.11105E+00
 0.64558E-01
 0.20277E-01
 0.77217E-05
 0.33373E-01
 0.15738E+00
 0.41334E+00
 0.85026E+00
 0.15334E+01
 0.25206E+01
 0.37626E+01
 0.49844E+01
 0.57342E+01
 0.83636E+01
 0.82043E+01
 0.71313E+01
 0.56088E+01
 0.40806E+01
 0.27703E+01
 0.17312E+01
 0.96015E+00
 0.44261E+00
 0.14562E+00
 0.17985E-01
 0.58067E-02
 0.61762E-01
 0.14490E+00
 0.22198E+00
 0.27098E+00
 0.28050E+00
 0.24739E+00
 0.17823E+00
 0.92240E-01
 0.20381E-01
 0.36887E-02
 0.94460E-01
 0.35412E+00
 0.84369E+00
 0.16193E+01
 0.27355E+01
 0.42119E+01
 0.59229E+01
 0.74872E+01
 0.83636E+01
 0.97236E+01
 0.95197E+01
 0.83958E+01
 0.67567E+01
 0.50162E+01
 0.34325E+01
 0.21265E+01
 0.11485E+01
 0.50187E+00
 0.14473E+00
 0.87141E-02
 0.22739E-01
 0.12196E+00
 0.24845E+00
 0.35659E+00
 0.41831E+00
 0.42042E+00
 0.36070E+00
 0.25103E+00
 0.12223E+00
 0.22025E-01
 0.10183E-01
 0.15811E+00
 0.54565E+00
 0.12449E+01
 0.23014E+01
 0.37242E+01
 0.54588E+01
 0.73118E+01
 0.88931E+01
 0.97236E+01
 0.10041E+02
 0.98304E+01
 0.87813E+01
 0.71942E+01
 0.54148E+01
 0.37173E+01
 0.22819E+01
 0.12043E+01
 0.50084E+00
 0.12520E+00
 0.17391E-02
 0.50500E-01
 0.19383E+00
 0.36023E+00
 0.49468E+00
 0.56482E+00
 0.55653E+00
 0.46930E+00
 0.32061E+00
 0.15193E+00
 0.25309E-01
 0.14891E-01
 0.20328E+00
 0.67771E+00
 0.15117E+01
 0.27349E+01
 0.43087E+01
 0.61085E+01
 0.78984E+01
 0.93308E+01
 0.10041E+02
 0.96318E+01
 0.94173E+01
 0.84626E+01
 0.69882E+01
 0.52827E+01
 0.36181E+01
 0.21981E+01
 0.11343E+01
 0.44699E+00
 0.93032E-01
 0.34162E-03
 0.87149E-01
 0.26830E+00
 0.46466E+00
 0.61672E+00
 0.68995E+00
 0.66994E+00
 0.55868E+00
 0.37886E+00
 0.17916E+00
 0.30520E-01
 0.15506E-01
 0.21995E+00
 0.72703E+00
 0.16015E+01
 0.28587E+01
 0.44332E+01
 0.61638E+01
 0.78018E+01
 0.90478E+01
 0.96318E+01
 0.86373E+01
 0.84200E+01
 0.75673E+01
 0.62531E+01
 0.47219E+01
 0.32197E+01
 0.19361E+01
 0.97507E+00
 0.35940E+00
 0.57356E-01
 0.68629E-02
 0.12821E+00
 0.33430E+00
 0.54589E+00
 0.70445E+00
 0.77523E+00
 0.74403E+00
 0.61591E+00
 0.41771E+00
 0.20057E+00
 0.37288E-01
 0.12414E-01
 0.20937E+00
 0.69967E+00
 0.15307E+01
 0.27036E+01
 0.41457E+01
 0.56959E+01
 0.71227E+01
 0.81724E+01
 0.86373E+01
 0.72086E+01
 0.70010E+01
 0.62770E+01
 0.51774E+01
 0.39009E+01
 0.26481E+01
 0.15743E+01
 0.76871E+00
 0.25897E+00
 0.26978E-01
 0.20963E-01
 0.16594E+00
 0.37974E+00
 0.59028E+00
 0.74424E+00
 0.80785E+00
 0.76750E+00
 0.63149E+00
 0.42955E+00
 0.21117E+00
 0.44029E-01
 0.76573E-02
 0.17870E+00
 0.61496E+00
 0.13444E+01
 0.23537E+01
 0.35714E+01
 0.48583E+01
 0.60218E+01
 0.68587E+01
 0.72086E+01
 0.55948E+01
 0.54119E+01
 0.48374E+01
 0.39799E+01
 0.29889E+01
 0.20146E+01
 0.11764E+01
 0.54901E+00
 0.16265E+00
 0.73778E-02
 0.39199E-01
 0.19197E+00
 0.39560E+00
 0.59019E+00
 0.72971E+00
 0.78258E+00
 0.73645E+00
 0.60224E+00
 0.41079E+00
 0.20705E+00
 0.48657E-01
 0.32850E-02
 0.13625E+00
 0.49305E+00
 0.10877E+01
 0.18969E+01
 0.28540E+01
 0.38469E+01
 0.47294E+01
 0.53510E+01
 0.55948E+01
 0.40248E+01
 0.38752E+01
 0.34483E+01
 0.28228E+01
 0.21037E+01
 0.13969E+01
 0.79065E+00
 0.34433E+00
 0.83642E-01
 0.10429E-03
 0.56842E-01
 0.20122E+00
 0.37955E+00
 0.54563E+00
 0.66190E+00
 0.70133E+00
 0.65418E+00
 0.53223E+00
 0.36418E+00
 0.18820E+00
 0.49754E-01
 0.60943E-03
 0.90863E-01
 0.35494E+00
 0.80027E+00
 0.14022E+01
 0.21033E+01
 0.28175E+01
 0.34407E+01
 0.38695E+01
 0.40248E+01
 0.26242E+01
 0.25108E+01
 0.22173E+01
 0.17968E+01
 0.13184E+01
 0.85237E+00
 0.45881E+00
 0.17937E+00
 0.30526E-01
 0.33042E-02
 0.69762E-01
 0.19288E+00
 0.33518E+00
 0.46317E+00
 0.54907E+00
 0.57359E+00
 0.53098E+00
 0.43135E+00
 0.29721E+00
 0.15792E+00
 0.46888E-01
 0.43458E-04
 0.51160E-01
 0.22362E+00
 0.52195E+00
 0.92656E+00
 0.13941E+01
 0.18637E+01
 0.22665E+01
 0.25366E+01
 0.26242E+01
 0.14642E+01
 0.13878E+01
 0.12099E+01
 0.96306E+00
 0.68813E+00
 0.42573E+00
 0.21107E+00
 0.68030E-01
 0.44857E-02
 0.12908E-01
 0.75404E-01
 0.16902E+00
 0.26962E+00
 0.35505E+00
 0.40810E+00
 0.41866E+00
 0.38502E+00
 0.31390E+00
 0.21933E+00
 0.12073E+00
 0.40479E-01
 0.11437E-02
 0.22334E-01
 0.11703E+00
 0.28719E+00
 0.51995E+00
 0.78787E+00
 0.10541E+01
 0.12788E+01
 0.14248E+01
 0.14642E+01
 0.61484E+00
 0.57283E+00
 0.48721E+00
 0.37442E+00
 0.25363E+00
 0.14326E+00
 0.58940E-01
 0.10743E-01
 0.10174E-02
 0.25032E-01
 0.73365E-01
 0.13377E+00
 0.19279E+00
 0.23847E+00
 0.26300E+00
 0.26341E+00
 0.24038E+00
 0.19736E+00
 0.14105E+00
 0.81736E-01
 0.31842E-01
 0.32952E-02
 0.53067E-02
 0.43137E-01
 0.11668E+00
 0.21892E+00
 0.33628E+00
 0.45146E+00
 0.54655E+00
 0.60505E+00
 0.61484E+00
 0.12612E+00
 0.11142E+00
 0.87323E-01
 0.59048E-01
 0.32131E-01
 0.11485E-01
 0.90236E-03
 0.23300E-02
 0.15364E-01
 0.37570E-01
 0.65118E-01
 0.93223E-01
 0.11688E+00
 0.13224E+00
 0.13758E+00
 0.13305E+00
 0.11967E+00
 0.98932E-01
 0.73274E-01
 0.46419E-01
 0.22803E-01
 0.64288E-02
 0.33670E-04
 0.48047E-02
 0.20172E-01
 0.43595E-01
 0.70884E-01
 0.97146E-01
 0.11763E+00
 0.12819E+00
 0.12612E+00
 0.46567E-02
 0.68322E-02
 0.99657E-02
 0.14103E-01
 0.19178E-01
 0.25040E-01
 0.31437E-01
 0.37975E-01
 0.44121E-01
 0.49266E-01
 0.52846E-01
 0.54495E-01
 0.54153E-01
 0.52033E-01
 0.48421E-01
 0.43562E-01
 0.37746E-01
 0.31450E-01
 0.25262E-01
 0.19646E-01
 0.14814E-01
 0.10811E-01
 0.76427E-02
 0.53010E-02
 0.37193E-02
 0.27675E-02
 0.23029E-02
 0.22293E-02
 0.25319E-02
 0.32880E-02
 0.46567E-02
 0.23579E+00
 0.24214E+00
 0.23752E+00
 0.22297E+00
 0.20036E+00
 0.17212E+00
 0.14125E+00
 0.11071E+00
 0.82710E-01
 0.58513E-01
 0.38797E-01
 0.23952E-01
 0.13862E-01
 0.77062E-02
 0.42639E-02
 0.24575E-02
 0.16255E-02
 0.14957E-02
 0.21668E-02
 0.42110E-02
 0.86112E-02
 0.16447E-01
 0.28712E-01
 0.46284E-01
 0.69612E-01
 0.98125E-01
 0.13005E+00
 0.16282E+00
 0.19351E+00
 0.21887E+00
 0.23579E+00
 0.80363E+00
 0.79916E+00
 0.75045E+00
 0.66565E+00
 0.55614E+00
 0.43496E+00
 0.31574E+00
 0.21021E+00
 0.12561E+00
 0.64314E-01
 0.25341E-01
 0.55645E-02
 0.12822E-04
 0.25961E-02
 0.77380E-02
 0.11619E-01
 0.12214E-01
 0.90315E-02
 0.35918E-02
 0.27604E-04
 0.44586E-02
 0.23345E-01
 0.62335E-01
 0.12563E+00
 0.21446E+00
 0.32504E+00
 0.44818E+00
 0.57134E+00
 0.68064E+00
 0.76206E+00
 0.80363E+00
 0.16701E+01
 0.16383E+01
 0.15099E+01
 0.13061E+01
 0.10553E+01
 0.78911E+00
 0.53840E+00
 0.32752E+00
 0.16988E+00
 0.67529E-01
 0.14481E-01
 0.47184E-05
 0.10764E-01
 0.32803E-01
 0.53859E-01
 0.65227E-01
 0.62698E-01
 0.46965E-01
 0.23923E-01
 0.43340E-02
 0.22029E-02
 0.32424E-01
 0.10870E+00
 0.24110E+00
 0.43201E+00
 0.67194E+00
 0.93929E+00
 0.12045E+01
 0.14349E+01
 0.15986E+01
 0.16701E+01
 0.27572E+01
 0.26816E+01
 0.24431E+01
 0.20808E+01
 0.16478E+01
 0.12006E+01
 0.79042E+00
 0.45531E+00
 0.21473E+00
 0.69673E-01
 0.69976E-02
 0.52154E-02
 0.39949E-01
 0.87783E-01
 0.12850E+00
 0.14727E+00
 0.13748E+00
 0.10245E+00
 0.54595E-01
 0.13000E-01
 0.13007E-02
 0.45397E-01
 0.16968E+00
 0.39112E+00
 0.71225E+00
 0.11159E+01
 0.15655E+01
 0.20101E+01
 0.23919E+01
 0.26551E+01
 0.27572E+01
 0.39737E+01
 0.38383E+01
 0.34633E+01
 0.29126E+01
 0.22706E+01
 0.16235E+01
 0.10438E+01
 0.58040E+00
 0.25643E+00
 0.70807E-01
 0.25424E-02
 0.17859E-01
 0.79491E-01
 0.15360E+00
 0.21238E+00
 0.23607E+00
 0.21678E+00
 0.16083E+00
 0.86758E-01
 0.22018E-01
 0.12293E-02
 0.63313E-01
 0.24419E+00
 0.56681E+00
 0.10328E+01
 0.16179E+01
 0.22710E+01
 0.29180E+01
 0.34710E+01
 0.38439E+01
 0.39737E+01
 0.52309E+01
 0.50200E+01
 0.44865E+01
 0.37248E+01
 0.28576E+01
 0.20053E+01
 0.12614E+01
 0.68157E+00
 0.28660E+00
 0.69480E-01
 0.43360E-03
 0.34034E-01
 0.12058E+00
 0.21626E+00
 0.28740E+00
 0.31216E+00
 0.28320E+00
 0.20907E+00
 0.11242E+00
 0.28089E-01
 0.18852E-02
 0.85363E-01
 0.32436E+00
 0.74711E+00
 0.13568E+01
 0.21263E+01
 0.29925E+01
 0.38556E+01
 0.45917E+01
 0.50791E+01
 0.52309E+01
 0.63950E+01
 0.60978E+01
 0.53977E+01
 0.44228E+01
 0.33363E+01
 0.22935E+01
 0.14080E+01
 0.73846E+00
 0.29703E+00
 0.64382E-01
 0.23867E-04
 0.49431E-01
 0.15421E+00
 0.26328E+00
 0.33952E+00
 0.36161E+00
 0.32411E+00
 0.23691E+00
 0.12497E+00
 0.28954E-01
 0.36194E-02
 0.10922E+00
 0.39837E+00
 0.90612E+00
 0.16430E+01
 0.25841E+01
 0.36550E+01
 0.47276E+01
 0.56395E+01
 0.62321E+01
 0.63950E+01
 0.72551E+01
 0.68699E+01
 0.60197E+01
 0.48677E+01
 0.36115E+01
 0.24317E+01
 0.14548E+01
 0.73870E+00
 0.28378E+00
 0.55137E-01
 0.73109E-03
 0.60505E-01
 0.17315E+00
 0.28518E+00
 0.35901E+00
 0.37553E+00
 0.33168E+00
 0.23821E+00
 0.12111E+00
 0.24394E-01
 0.69254E-02
 0.13168E+00
 0.45515E+00
 0.10211E+01
 0.18507E+01
 0.29223E+01
 0.41506E+01
 0.53838E+01
 0.64291E+01
 0.70971E+01
 0.72551E+01
 0.76064E+01
 0.71383E+01
 0.61702E+01
 0.49080E+01
 0.35763E+01
 0.23593E+01
 0.13759E+01
 0.67504E+00
 0.24608E+00
 0.41914E-01
 0.22683E-02
 0.65887E-01
 0.17445E+00
 0.27788E+00
 0.34188E+00
 0.35088E+00
 0.30418E+00
 0.21285E+00
 0.10248E+00
 0.16545E-01
 0.11792E-01
 0.14839E+00
 0.48393E+00
 0.10691E+01
 0.19323E+01
 0.30532E+01
 0.43431E+01
 0.56464E+01
 0.67593E+01
 0.74669E+01
 0.76064E+01
 0.73460E+01
 0.68031E+01
 0.57523E+01
 0.44577E+01
 0.31652E+01
 0.20366E+01
 0.11551E+01
 0.54518E+00
 0.18584E+00
 0.25873E-01
 0.47687E-02
 0.65868E-01
 0.15920E+00
 0.24349E+00
 0.29154E+00
 0.29237E+00
 0.24727E+00
 0.16694E+00
 0.74547E-01
 0.83894E-02
 0.17354E-01
 0.15418E+00
 0.47325E+00
 0.10252E+01
 0.18382E+01
 0.28947E+01
 0.41222E+01
 0.53916E+01
 0.65092E+01
 0.72307E+01
 0.73460E+01
 0.64033E+01
 0.58133E+01
 0.47500E+01
 0.35306E+01
 0.24047E+01
 0.14893E+01
 0.81241E+00
 0.36358E+00
 0.11179E+00
 0.10394E-01
 0.84358E-02
 0.60836E-01
 0.13061E+00
 0.18901E+00
 0.21813E+00
 0.21188E+00
 0.17289E+00
 0.11063E+00
 0.43936E-01
 0.22884E-02
 0.22474E-01
 0.14553E+00
 0.41620E+00
 0.87606E+00
 0.15471E+01
 0.24213E+01
 0.34617E+01
 0.45879E+01
 0.56309E+01
 0.63219E+01
 0.64033E+01
 0.46672E+01
 0.41137E+01
 0.32031E+01
 0.22412E+01
 0.14316E+01
 0.83234E+00
 0.42408E+00
 0.17202E+00
 0.42535E-01
 0.86104E-03
 0.13151E-01
 0.51250E-01
 0.93664E-01
 0.12491E+00
 0.13625E+00
 0.12575E+00
 0.96506E-01
 0.56029E-01
 0.17527E-01
 0.12612E-05
 0.26307E-01
 0.12265E+00
 0.31830E+00
 0.63928E+00
 0.10992E+01
 0.17009E+01
 0.24418E+01
 0.32872E+01
 0.41065E+01
 0.46495E+01
 0.46672E+01
 0.23151E+01
 0.19347E+01
 0.13980E+01
 0.89045E+00
 0.50942E+00
 0.26017E+00
 0.11137E+00
 0.32902E-01
 0.27066E-02
 0.28959E-02
 0.18584E-01
 0.38638E-01
 0.55377E-01
 0.63991E-01
 0.62579E-01
 0.51885E-01
 0.34655E-01
 0.15646E-01
 0.20202E-02
 0.28033E-02
 0.28098E-01
 0.89492E-01
 0.19961E+00
 0.36827E+00
 0.60002E+00
 0.89945E+00
 0.12741E+01
 0.17115E+01
 0.21325E+01
 0.23813E+01
 0.23151E+01
 0.35306E+00
 0.23618E+00
 0.12655E+00
 0.52495E-01
 0.14740E-01
 0.12773E-02
 0.95468E-03
 0.66748E-02
 0.14036E-01
 0.20347E-01
 0.24256E-01
 0.25258E-01
 0.23341E-01
 0.19005E-01
 0.13226E-01
 0.72012E-02
 0.22553E-02
 0.84336E-05
 0.23201E-02
 0.10917E-01
 0.27340E-01
 0.53226E-01
 0.89826E-01
 0.13675E+00
 0.19219E+00
 0.25531E+00
 0.32576E+00
 0.39575E+00
 0.44144E+00
 0.43089E+00
 0.35306E+00
 0.26055E+00
 0.33508E+00
 0.35595E+00
 0.32755E+00
 0.27541E+00
 0.22047E+00
 0.17005E+00
 0.12456E+00
 0.84764E-01
 0.52573E-01
 0.28861E-01
 0.12957E-01
 0.37416E-02
 0.15714E-03
 0.95179E-03
 0.46553E-02
 0.99161E-02
 0.15588E-01
 0.20564E-01
 0.23823E-01
 0.24676E-01
 0.22817E-01
 0.18247E-01
 0.11561E-01
 0.44637E-02
 0.12296E-03
 0.39692E-02
 0.25373E-01
 0.76435E-01
 0.16125E+00
 0.26055E+00
 0.84438E+00
 0.92951E+00
 0.88162E+00
 0.74458E+00
 0.58228E+00
 0.43332E+00
 0.30740E+00
 0.20364E+00
 0.12233E+00
 0.64216E-01
 0.27274E-01
 0.73576E-02
 0.23464E-03
 0.20638E-02
 0.90713E-02
 0.17837E-01
 0.25737E-01
 0.30866E-01
 0.31895E-01
 0.28346E-01
 0.20876E-01
 0.11299E-01
 0.27808E-02
 0.29572E-03
 0.10854E-01
 0.43996E-01
 0.11356E+00
 0.23723E+00
 0.42426E+00
 0.65000E+00
 0.84438E+00
 0.34256E+01
 0.34612E+01
 0.30457E+01
 0.23999E+01
 0.17498E+01
 0.12049E+01
 0.77938E+00
 0.45930E+00
 0.23441E+00
 0.94441E-01
 0.22786E-01
 0.24546E-03
 0.97239E-02
 0.36354E-01
 0.67051E-01
 0.91787E-01
 0.10429E+00
 0.10147E+00
 0.83513E-01
 0.54683E-01
 0.23408E-01
 0.20840E-02
 0.79938E-02
 0.63633E-01
 0.19531E+00
 0.43473E+00
 0.82398E+00
 0.14031E+01
 0.21528E+01
 0.29180E+01
 0.34256E+01
 0.65234E+01
 0.64365E+01
 0.55881E+01
 0.43689E+01
 0.31554E+01
 0.21314E+01
 0.13305E+01
 0.73941E+00
 0.34210E+00
 0.11308E+00
 0.14097E-01
 0.44854E-02
 0.48564E-01
 0.11532E+00
 0.17897E+00
 0.22172E+00
 0.23388E+00
 0.21212E+00
 0.16035E+00
 0.91787E-01
 0.28430E-01
 0.88960E-05
 0.45241E-01
 0.21106E+00
 0.54689E+00
 0.11035E+01
 0.19375E+01
 0.30840E+01
 0.44602E+01
 0.57603E+01
 0.65234E+01
 0.88422E+01
 0.86605E+01
 0.75632E+01
 0.59899E+01
 0.43729E+01
 0.29520E+01
 0.18102E+01
 0.96702E+00
 0.41433E+00
 0.11365E+00
 0.47837E-02
 0.25163E-01
 0.11862E+00
 0.23556E+00
 0.33648E+00
 0.39652E+00
 0.40351E+00
 0.35451E+00
 0.25823E+00
 0.13927E+00
 0.36828E-01
 0.12134E-02
 0.94210E-01
 0.38679E+00
 0.94684E+00
 0.18280E+01
 0.30663E+01
 0.46489E+01
 0.64190E+01
 0.79886E+01
 0.88422E+01
 0.99603E+01
 0.97404E+01
 0.86057E+01
 0.69362E+01
 0.51344E+01
 0.34736E+01
 0.21011E+01
 0.10853E+01
 0.43290E+00
 0.96420E-01
 0.30247E-04
 0.64559E-01
 0.21560E+00
 0.38585E+00
 0.52342E+00
 0.59779E+00
 0.59529E+00
 0.51403E+00
 0.36809E+00
 0.19417E+00
 0.49028E-01
 0.23275E-02
 0.13444E+00
 0.53303E+00
 0.12755E+01
 0.24045E+01
 0.39116E+01
 0.57130E+01
 0.75910E+01
 0.91573E+01
 0.99603E+01
 0.10095E+02
 0.98653E+01
 0.87955E+01
 0.71765E+01
 0.53535E+01
 0.36134E+01
 0.21524E+01
 0.10748E+01
 0.39654E+00
 0.67029E-01
 0.47669E-02
 0.12178E+00
 0.33032E+00
 0.54956E+00
 0.71860E+00
 0.80275E+00
 0.78743E+00
 0.67272E+00
 0.47865E+00
 0.25255E+00
 0.65549E-01
 0.18468E-02
 0.15253E+00
 0.61090E+00
 0.14540E+01
 0.27099E+01
 0.43295E+01
 0.61695E+01
 0.79772E+01
 0.94028E+01
 0.10095E+02
 0.95055E+01
 0.92713E+01
 0.82922E+01
 0.67921E+01
 0.50661E+01
 0.33940E+01
 0.19855E+01
 0.95425E+00
 0.31935E+00
 0.34725E-01
 0.22835E-01
 0.19316E+00
 0.45038E+00
 0.70687E+00
 0.89777E+00
 0.98591E+00
 0.95619E+00
 0.81168E+00
 0.57825E+00
 0.31017E+00
 0.86776E-01
 0.41604E-03
 0.14552E+00
 0.61061E+00
 0.14624E+01
 0.27152E+01
 0.42987E+01
 0.60431E+01
 0.76898E+01
 0.89339E+01
 0.95055E+01
 0.83467E+01
 0.81140E+01
 0.72463E+01
 0.59243E+01
 0.43981E+01
 0.29169E+01
 0.16716E+01
 0.76641E+00
 0.22402E+00
 0.98976E-02
 0.55280E-01
 0.27081E+00
 0.55990E+00
 0.83613E+00
 0.10361E+01
 0.11220E+01
 0.10785E+01
 0.91234E+00
 0.65420E+00
 0.36055E+00
 0.11136E+00
 0.23447E-03
 0.11956E+00
 0.54680E+00
 0.13311E+01
 0.24722E+01
 0.38942E+01
 0.54328E+01
 0.68519E+01
 0.78936E+01
 0.83467E+01
 0.68133E+01
 0.65969E+01
 0.58708E+01
 0.47801E+01
 0.35262E+01
 0.23107E+01
 0.12902E+01
 0.55492E+00
 0.13232E+00
 0.43947E-04
 0.98133E-01
 0.34195E+00
 0.64111E+00
 0.91754E+00
 0.11133E+01
 0.11912E+01
 0.11365E+01
 0.95937E+00
 0.69387E+00
 0.39453E+00
 0.13521E+00
 0.33695E-02
 0.84460E-01
 0.44324E+00
 0.11106E+01
 0.20721E+01
 0.32534E+01
 0.45126E+01
 0.56552E+01
 0.64760E+01
 0.68133E+01
 0.51691E+01
 0.49825E+01
 0.44136E+01
 0.35730E+01
 0.26115E+01
 0.16809E+01
 0.90272E+00
 0.35287E+00