3    
6    

1    
  0.0115470053837925   0.0115470053837925   0.0115470053837925
  -4.7671216850   -0.1980253660    0.1548966989
   2.2454984933   -2.0815336790   -0.0760419005
   2.5216231917    2.2795590450   -0.0788547984

1    
 -0.0115470053837925  -0.0115470053837925  -0.0115470053837925
  -4.5286042950    0.1779483998   -0.1496934232
   2.3949267492   -2.0794686773    0.0761365661
   2.1336775459    1.9015202776    0.0735568570

2    
  0.0141421356237310   0.0000000000000000   0.0141421356237310
  -4.5250686256   -0.1638679334   -0.0230757693
   2.2073550209   -1.9436533032    0.0200165250
   2.3177136047    2.1075212366    0.0030592443

2    
 -0.0141421356237310   0.0000000000000000  -0.0141421356237310
  -4.7757257639    0.1655933401    0.0266221854
   2.4422236371   -2.2243166014   -0.0231718280
   2.3335021268    2.0587232613   -0.0034503574

2    
  0.0000000000000000   0.0200000000000000   0.0000000000000000
  -4.8306744228    0.2642428466   -0.0000000000
   2.5382897169   -2.3764295618   -0.0000000000
   2.2923847059    2.1121867152   -0.0000000000

2    
  0.0000000000000000  -0.0200000000000000   0.0000000000000000
  -4.5036758526   -0.2431172090   -0.0000000000
   2.1414232433   -1.8164279955   -0.0000000000
   2.3622526093    2.0595452044   -0.0000000000
