phonopy:
  version: "2.38.2"
  calculator: abinit
  frequency_unit_conversion_factor: 21.490680
  symmetry_tolerance: 1.00000e-05
  configuration:
    dim: "1 1 1"
    anime: "0 0 0"
    force_constants: "READ"
    fc_symmetry: ".TRUE."
    cell_filename: "ab.in"

physical_unit:
  atomic_mass: "AMU"
  length: "au"
  force_constants: "eV/angstrom.au"

space_group:
  type: "Pmm2"
  number: 25
  Hall_symbol: "P 2 -2"

supercell_matrix:
- [   1,   0,   0 ]
- [   0,   1,   0 ]
- [   0,   0,   1 ]

primitive_cell:
  lattice:
  - [    15.000000000000000,     0.000000000000000,     0.000000000000000 ] # a
  - [     0.000000000000000,    15.000000000000000,     0.000000000000000 ] # b
  - [     0.000000000000000,     0.000000000000000,    15.000000000000000 ] # c
  points:
  - symbol: O # 1
    coordinates: [  0.497624951264520,  0.500000000000000,  0.500000000000000 ]
    mass: 15.999400
  - symbol: H # 2
    coordinates: [  0.574520830367740,  0.403587517243480,  0.500000000000000 ]
    mass: 1.007940
  - symbol: H # 3
    coordinates: [  0.574520830367740,  0.596412482756530,  0.500000000000000 ]
    mass: 1.007940
  reciprocal_lattice: # without 2pi
  - [     0.066666666666667,     0.000000000000000,     0.000000000000000 ] # a*
  - [     0.000000000000000,     0.066666666666667,     0.000000000000000 ] # b*
  - [     0.000000000000000,     0.000000000000000,     0.066666666666667 ] # c*

unit_cell:
  lattice:
  - [    15.000000000000000,     0.000000000000000,     0.000000000000000 ] # a
  - [     0.000000000000000,    15.000000000000000,     0.000000000000000 ] # b
  - [     0.000000000000000,     0.000000000000000,    15.000000000000000 ] # c
  points:
  - symbol: O # 1
    coordinates: [  0.497624951264520,  0.500000000000000,  0.500000000000000 ]
    mass: 15.999400
    reduced_to: 1
  - symbol: H # 2
    coordinates: [  0.574520830367740,  0.403587517243480,  0.500000000000000 ]
    mass: 1.007940
    reduced_to: 2
  - symbol: H # 3
    coordinates: [  0.574520830367740,  0.596412482756530,  0.500000000000000 ]
    mass: 1.007940
    reduced_to: 3

supercell:
  lattice:
  - [    15.000000000000000,     0.000000000000000,     0.000000000000000 ] # a
  - [     0.000000000000000,    15.000000000000000,     0.000000000000000 ] # b
  - [     0.000000000000000,     0.000000000000000,    15.000000000000000 ] # c
  points:
  - symbol: O # 1
    coordinates: [  0.497624951264520,  0.500000000000000,  0.500000000000000 ]
    mass: 15.999400
    reduced_to: 1
  - symbol: H # 2
    coordinates: [  0.574520830367740,  0.403587517243480,  0.500000000000000 ]
    mass: 1.007940
    reduced_to: 2
  - symbol: H # 3
    coordinates: [  0.574520830367740,  0.596412482756530,  0.500000000000000 ]
    mass: 1.007940
    reduced_to: 3
