
.Version 10.0.9 of ABINIT, released Sep 2024.
.(MPI version, prepared for a x86_64_linux_intel2021.6 computer) 

.Copyright (C) 1998-2024 ABINIT group . 
 ABINIT comes with ABSOLUTELY NO WARRANTY.
 It is free software, and you are welcome to redistribute it
 under certain conditions (GNU General Public License,
 see ~abinit/COPYING or http://www.gnu.org/copyleft/gpl.txt).

 ABINIT is a project of the Universite Catholique de Louvain,
 Corning Inc. and other collaborators, see ~abinit/doc/developers/contributors.txt .
 Please read https://docs.abinit.org/theory/acknowledgments for suggested
 acknowledgments of the ABINIT effort.
 For more information, see https://www.abinit.org .

.Starting date : Mon  8 Dec 2025.
- ( at 16h06 )
  
- input  file    -> ab.in
- output file    -> ab.abo
- root for input  files -> abi
- root for output files -> abo
 
 Symmetries : the unit cell is not primitive
================================================================================
 Values of the parameters that define the memory need of the present run
     intxc =       0    ionmov =       0      iscf =       7    lmnmax =       6
     lnmax =       6     mgfft =     108  mpssoang =       3    mqgrid =    5171
     natom =      54  nloc_mem =       1    nspden =       1   nspinor =       1
    nsppol =       1      nsym =     216    n1xccc =    2501    ntypat =       2
    occopt =       1   xclevel =       2
-    mband =         280        mffmem =           1         mkmem =           1
       mpw =         741          nfft =      202500          nkpt =           3
================================================================================
P This job should need less than                      92.385 Mbytes of memory.
  Rough estimation (10% accuracy) of disk space for files :
_ WF disk file :     28.495 Mbytes ; DEN or POT disk file :      1.547 Mbytes.
================================================================================
 
--------------------------------------------------------------------------------
------------- Echo of variables that govern the present computation ------------
--------------------------------------------------------------------------------
-
- outvars: echo of selected default values                                      
-   iomode0 =  0 , fftalg0 =512 , wfoptalg0 =  0
-
- outvars: echo of global parameters not present in the input file              
-  max_nthreads =    0
-
 -outvars: echo values of preprocessed input variables --------
-          iomode           1
            acell      1.0000000000E+00  1.0000000000E+00  1.0000000000E+00 Bohr
              amu      9.59400000E+01  3.20660000E+01
           bandpp           4
          chkprim           0
     densfor_pred           6
           diemac      1.20000000E+01
             ecut      2.00000000E+01 Hartree
-          fftalg         401
           istwfk        2    0    0
              ixc          11
              kpt      0.00000000E+00  0.00000000E+00  0.00000000E+00
                       3.33333333E-01  0.00000000E+00  0.00000000E+00
                       3.33333333E-01  3.33333333E-01  0.00000000E+00
         kptrlatt        3    0    0      0    3    0      0    0    1
          kptrlen      2.56852226E+01
P           mkmem           1
            natom          54
            nband         280
            ngfft          75      75     108
             nkpt           3
    nblock_lobpcg           5
-          npband          14
-           npfft           3
-        np_spkpt           3
            nstep         100
             nsym         216
           ntypat           2
              occ      2.000000  2.000000  2.000000  2.000000  2.000000  2.000000
                       2.000000  2.000000  2.000000  2.000000  2.000000  2.000000
                       2.000000  2.000000  2.000000  2.000000  2.000000  2.000000
                       2.000000  2.000000  2.000000  2.000000  2.000000  2.000000
                       2.000000  2.000000  2.000000  2.000000  2.000000  2.000000
                       2.000000  2.000000  2.000000  2.000000  2.000000  2.000000
                       2.000000  2.000000  2.000000  2.000000  2.000000  2.000000
                       2.000000  2.000000  2.000000  2.000000  2.000000  2.000000
                       2.000000  2.000000  2.000000  2.000000  2.000000  2.000000
                       2.000000  2.000000  2.000000  2.000000  2.000000  2.000000
                       2.000000  2.000000  2.000000  2.000000  2.000000  2.000000
                       2.000000  2.000000  2.000000  2.000000  2.000000  2.000000
                       2.000000  2.000000  2.000000  2.000000  2.000000  2.000000
                       2.000000  2.000000  2.000000  2.000000  2.000000  2.000000
                       2.000000  2.000000  2.000000  2.000000  2.000000  2.000000
                       2.000000  2.000000  2.000000  2.000000  2.000000  2.000000
                       2.000000  2.000000  2.000000  2.000000  2.000000  2.000000
                       2.000000  2.000000  2.000000  2.000000  2.000000  2.000000
                       2.000000  2.000000  2.000000  2.000000  2.000000  2.000000
                       2.000000  2.000000  2.000000  2.000000  2.000000  2.000000
                       2.000000  2.000000  2.000000  2.000000  2.000000  2.000000
                       2.000000  2.000000  2.000000  2.000000  2.000000  2.000000
                       2.000000  2.000000  2.000000  2.000000  2.000000  2.000000
                       2.000000  2.000000  2.000000  2.000000  2.000000  2.000000
                       2.000000  2.000000  2.000000  2.000000  2.000000  2.000000
                       2.000000  2.000000  2.000000  2.000000  2.000000  2.000000
                       2.000000  2.000000  2.000000  2.000000  2.000000  2.000000
                       2.000000  2.000000  2.000000  2.000000  2.000000  2.000000
                       2.000000  2.000000  2.000000  2.000000  2.000000  2.000000
                       2.000000  2.000000  2.000000  2.000000  2.000000  2.000000
                       2.000000  2.000000  2.000000  2.000000  2.000000  2.000000
                       2.000000  2.000000  2.000000  2.000000  2.000000  2.000000
                       2.000000  2.000000  2.000000  2.000000  2.000000  2.000000
                       2.000000  2.000000  2.000000  2.000000  2.000000  2.000000
                       2.000000  2.000000  2.000000  2.000000  2.000000  2.000000
                       2.000000  2.000000  2.000000  2.000000  2.000000  2.000000
                       2.000000  2.000000  2.000000  2.000000  2.000000  2.000000
                       2.000000  2.000000  2.000000  2.000000  2.000000  2.000000
                       2.000000  2.000000  2.000000  2.000000  2.000000  2.000000
                       0.000000  0.000000  0.000000  0.000000  0.000000  0.000000
                       0.000000  0.000000  0.000000  0.000000  0.000000  0.000000
                       0.000000  0.000000  0.000000  0.000000  0.000000  0.000000
                       0.000000  0.000000  0.000000  0.000000  0.000000  0.000000
                       0.000000  0.000000  0.000000  0.000000  0.000000  0.000000
                       0.000000  0.000000  0.000000  0.000000  0.000000  0.000000
                       0.000000  0.000000  0.000000  0.000000  0.000000  0.000000
                       0.000000  0.000000  0.000000  0.000000
           ortalg          -2
        paral_kgb           1
        prtposcar           1
            prtwf           0
            rprim      9.0560300050E+00 -1.5685504084E+01  0.0000000000E+00
                       9.0560300050E+00  1.5685504084E+01  0.0000000000E+00
                       0.0000000000E+00  0.0000000000E+00  2.5685222633E+01
           symrel      1  0  0   0  1  0   0  0  1       1  0  0   0  1  0   0  0  1
                       1  0  0   0  1  0   0  0  1       1  0  0   0  1  0   0  0  1
                       1  0  0   0  1  0   0  0  1       1  0  0   0  1  0   0  0  1
                       1  0  0   0  1  0   0  0  1       1  0  0   0  1  0   0  0  1
                       1  0  0   0  1  0   0  0  1      -1  0  0   0 -1  0   0  0 -1
                      -1  0  0   0 -1  0   0  0 -1      -1  0  0   0 -1  0   0  0 -1
                      -1  0  0   0 -1  0   0  0 -1      -1  0  0   0 -1  0   0  0 -1
                      -1  0  0   0 -1  0   0  0 -1      -1  0  0   0 -1  0   0  0 -1
                      -1  0  0   0 -1  0   0  0 -1      -1  0  0   0 -1  0   0  0 -1
                       0  1  0   1  0  0   0  0  1       0  1  0   1  0  0   0  0  1
                       0  1  0   1  0  0   0  0  1       0  1  0   1  0  0   0  0  1
                       0  1  0   1  0  0   0  0  1       0  1  0   1  0  0   0  0  1
                       0  1  0   1  0  0   0  0  1       0  1  0   1  0  0   0  0  1
                       0  1  0   1  0  0   0  0  1       0 -1  0  -1  0  0   0  0 -1
                       0 -1  0  -1  0  0   0  0 -1       0 -1  0  -1  0  0   0  0 -1
                       0 -1  0  -1  0  0   0  0 -1       0 -1  0  -1  0  0   0  0 -1
                       0 -1  0  -1  0  0   0  0 -1       0 -1  0  -1  0  0   0  0 -1
                       0 -1  0  -1  0  0   0  0 -1       0 -1  0  -1  0  0   0  0 -1
                       1  1  0  -1  0  0   0  0  1       1  1  0  -1  0  0   0  0  1
                       1  1  0  -1  0  0   0  0  1       1  1  0  -1  0  0   0  0  1
                       1  1  0  -1  0  0   0  0  1       1  1  0  -1  0  0   0  0  1
                       1  1  0  -1  0  0   0  0  1       1  1  0  -1  0  0   0  0  1
                       1  1  0  -1  0  0   0  0  1      -1 -1  0   1  0  0   0  0 -1
                      -1 -1  0   1  0  0   0  0 -1      -1 -1  0   1  0  0   0  0 -1
                      -1 -1  0   1  0  0   0  0 -1      -1 -1  0   1  0  0   0  0 -1
                      -1 -1  0   1  0  0   0  0 -1      -1 -1  0   1  0  0   0  0 -1
                      -1 -1  0   1  0  0   0  0 -1      -1 -1  0   1  0  0   0  0 -1
                      -1  0  0   1  1  0   0  0  1      -1  0  0   1  1  0   0  0  1
                      -1  0  0   1  1  0   0  0  1      -1  0  0   1  1  0   0  0  1
                      -1  0  0   1  1  0   0  0  1      -1  0  0   1  1  0   0  0  1
                      -1  0  0   1  1  0   0  0  1      -1  0  0   1  1  0   0  0  1
                      -1  0  0   1  1  0   0  0  1       1  0  0  -1 -1  0   0  0 -1
                       1  0  0  -1 -1  0   0  0 -1       1  0  0  -1 -1  0   0  0 -1
                       1  0  0  -1 -1  0   0  0 -1       1  0  0  -1 -1  0   0  0 -1
                       1  0  0  -1 -1  0   0  0 -1       1  0  0  -1 -1  0   0  0 -1
                       1  0  0  -1 -1  0   0  0 -1       1  0  0  -1 -1  0   0  0 -1
                       0  1  0  -1 -1  0   0  0  1       0  1  0  -1 -1  0   0  0  1
                       0  1  0  -1 -1  0   0  0  1       0  1  0  -1 -1  0   0  0  1
                       0  1  0  -1 -1  0   0  0  1       0  1  0  -1 -1  0   0  0  1
                       0  1  0  -1 -1  0   0  0  1       0  1  0  -1 -1  0   0  0  1
                       0  1  0  -1 -1  0   0  0  1       0 -1  0   1  1  0   0  0 -1
                       0 -1  0   1  1  0   0  0 -1       0 -1  0   1  1  0   0  0 -1
                       0 -1  0   1  1  0   0  0 -1       0 -1  0   1  1  0   0  0 -1
                       0 -1  0   1  1  0   0  0 -1       0 -1  0   1  1  0   0  0 -1
                       0 -1  0   1  1  0   0  0 -1       0 -1  0   1  1  0   0  0 -1
                      -1 -1  0   0  1  0   0  0  1      -1 -1  0   0  1  0   0  0  1
                      -1 -1  0   0  1  0   0  0  1      -1 -1  0   0  1  0   0  0  1
                      -1 -1  0   0  1  0   0  0  1      -1 -1  0   0  1  0   0  0  1
                      -1 -1  0   0  1  0   0  0  1      -1 -1  0   0  1  0   0  0  1
                      -1 -1  0   0  1  0   0  0  1       1  1  0   0 -1  0   0  0 -1
                       1  1  0   0 -1  0   0  0 -1       1  1  0   0 -1  0   0  0 -1
                       1  1  0   0 -1  0   0  0 -1       1  1  0   0 -1  0   0  0 -1
                       1  1  0   0 -1  0   0  0 -1       1  1  0   0 -1  0   0  0 -1
                       1  1  0   0 -1  0   0  0 -1       1  1  0   0 -1  0   0  0 -1
                      -1  0  0   0 -1  0   0  0  1      -1  0  0   0 -1  0   0  0  1
                      -1  0  0   0 -1  0   0  0  1      -1  0  0   0 -1  0   0  0  1
                      -1  0  0   0 -1  0   0  0  1      -1  0  0   0 -1  0   0  0  1
                      -1  0  0   0 -1  0   0  0  1      -1  0  0   0 -1  0   0  0  1
                      -1  0  0   0 -1  0   0  0  1       1  0  0   0  1  0   0  0 -1
                       1  0  0   0  1  0   0  0 -1       1  0  0   0  1  0   0  0 -1
                       1  0  0   0  1  0   0  0 -1       1  0  0   0  1  0   0  0 -1
                       1  0  0   0  1  0   0  0 -1       1  0  0   0  1  0   0  0 -1
                       1  0  0   0  1  0   0  0 -1       1  0  0   0  1  0   0  0 -1
                       0 -1  0  -1  0  0   0  0  1       0 -1  0  -1  0  0   0  0  1
                       0 -1  0  -1  0  0   0  0  1       0 -1  0  -1  0  0   0  0  1
                       0 -1  0  -1  0  0   0  0  1       0 -1  0  -1  0  0   0  0  1
                       0 -1  0  -1  0  0   0  0  1       0 -1  0  -1  0  0   0  0  1
                       0 -1  0  -1  0  0   0  0  1       0  1  0   1  0  0   0  0 -1
                       0  1  0   1  0  0   0  0 -1       0  1  0   1  0  0   0  0 -1
                       0  1  0   1  0  0   0  0 -1       0  1  0   1  0  0   0  0 -1
                       0  1  0   1  0  0   0  0 -1       0  1  0   1  0  0   0  0 -1
                       0  1  0   1  0  0   0  0 -1       0  1  0   1  0  0   0  0 -1
                      -1 -1  0   1  0  0   0  0  1      -1 -1  0   1  0  0   0  0  1
                      -1 -1  0   1  0  0   0  0  1      -1 -1  0   1  0  0   0  0  1
                      -1 -1  0   1  0  0   0  0  1      -1 -1  0   1  0  0   0  0  1
                      -1 -1  0   1  0  0   0  0  1      -1 -1  0   1  0  0   0  0  1
                      -1 -1  0   1  0  0   0  0  1       1  1  0  -1  0  0   0  0 -1
                       1  1  0  -1  0  0   0  0 -1       1  1  0  -1  0  0   0  0 -1
                       1  1  0  -1  0  0   0  0 -1       1  1  0  -1  0  0   0  0 -1
                       1  1  0  -1  0  0   0  0 -1       1  1  0  -1  0  0   0  0 -1
                       1  1  0  -1  0  0   0  0 -1       1  1  0  -1  0  0   0  0 -1
                       1  0  0  -1 -1  0   0  0  1       1  0  0  -1 -1  0   0  0  1
                       1  0  0  -1 -1  0   0  0  1       1  0  0  -1 -1  0   0  0  1
                       1  0  0  -1 -1  0   0  0  1       1  0  0  -1 -1  0   0  0  1
                       1  0  0  -1 -1  0   0  0  1       1  0  0  -1 -1  0   0  0  1
                       1  0  0  -1 -1  0   0  0  1      -1  0  0   1  1  0   0  0 -1
                      -1  0  0   1  1  0   0  0 -1      -1  0  0   1  1  0   0  0 -1
                      -1  0  0   1  1  0   0  0 -1      -1  0  0   1  1  0   0  0 -1
                      -1  0  0   1  1  0   0  0 -1      -1  0  0   1  1  0   0  0 -1
                      -1  0  0   1  1  0   0  0 -1      -1  0  0   1  1  0   0  0 -1
                       0 -1  0   1  1  0   0  0  1       0 -1  0   1  1  0   0  0  1
                       0 -1  0   1  1  0   0  0  1       0 -1  0   1  1  0   0  0  1
                       0 -1  0   1  1  0   0  0  1       0 -1  0   1  1  0   0  0  1
                       0 -1  0   1  1  0   0  0  1       0 -1  0   1  1  0   0  0  1
                       0 -1  0   1  1  0   0  0  1       0  1  0  -1 -1  0   0  0 -1
                       0  1  0  -1 -1  0   0  0 -1       0  1  0  -1 -1  0   0  0 -1
                       0  1  0  -1 -1  0   0  0 -1       0  1  0  -1 -1  0   0  0 -1
                       0  1  0  -1 -1  0   0  0 -1       0  1  0  -1 -1  0   0  0 -1
                       0  1  0  -1 -1  0   0  0 -1       0  1  0  -1 -1  0   0  0 -1
                       1  1  0   0 -1  0   0  0  1       1  1  0   0 -1  0   0  0  1
                       1  1  0   0 -1  0   0  0  1       1  1  0   0 -1  0   0  0  1
                       1  1  0   0 -1  0   0  0  1       1  1  0   0 -1  0   0  0  1
                       1  1  0   0 -1  0   0  0  1       1  1  0   0 -1  0   0  0  1
                       1  1  0   0 -1  0   0  0  1      -1 -1  0   0  1  0   0  0 -1
                      -1 -1  0   0  1  0   0  0 -1      -1 -1  0   0  1  0   0  0 -1
                      -1 -1  0   0  1  0   0  0 -1      -1 -1  0   0  1  0   0  0 -1
                      -1 -1  0   0  1  0   0  0 -1      -1 -1  0   0  1  0   0  0 -1
                      -1 -1  0   0  1  0   0  0 -1      -1 -1  0   0  1  0   0  0 -1
            tnons      0.0000000  0.0000000  0.0000000     0.3333333  0.0000000  0.0000000
                      -0.3333333  0.0000000  0.0000000     0.0000000  0.3333333  0.0000000
                       0.3333333  0.3333333  0.0000000    -0.3333333  0.3333333  0.0000000
                       0.0000000 -0.3333333  0.0000000     0.3333333 -0.3333333  0.0000000
                      -0.3333333 -0.3333333  0.0000000     0.3333333  0.3333333 -0.0000000
                      -0.3333333  0.3333333 -0.0000000    -0.0000000  0.3333333 -0.0000000
                       0.3333333 -0.3333333 -0.0000000    -0.3333333 -0.3333333 -0.0000000
                      -0.0000000 -0.3333333 -0.0000000     0.3333333 -0.0000000 -0.0000000
                      -0.3333333 -0.0000000 -0.0000000    -0.0000000 -0.0000000 -0.0000000
                       0.0000000  0.0000000  0.5000000     0.3333333  0.0000000  0.5000000
                      -0.3333333  0.0000000  0.5000000    -0.0000000  0.3333333  0.5000000
                       0.3333333  0.3333333  0.5000000    -0.3333333  0.3333333  0.5000000
                       0.0000000 -0.3333333  0.5000000     0.3333333 -0.3333333  0.5000000
                      -0.3333333 -0.3333333  0.5000000     0.3333333  0.3333333  0.5000000
                      -0.3333333  0.3333333  0.5000000    -0.0000000  0.3333333  0.5000000
                       0.3333333 -0.3333333  0.5000000    -0.3333333 -0.3333333  0.5000000
                      -0.0000000 -0.3333333  0.5000000     0.3333333 -0.0000000  0.5000000
                      -0.3333333 -0.0000000  0.5000000    -0.0000000 -0.0000000  0.5000000
                      -0.0000000  0.0000000  0.5000000     0.3333333  0.0000000  0.5000000
                      -0.3333333  0.0000000  0.5000000    -0.0000000  0.3333333  0.5000000
                       0.3333333  0.3333333  0.5000000    -0.3333333  0.3333333  0.5000000
                      -0.0000000 -0.3333333  0.5000000     0.3333333 -0.3333333  0.5000000
                      -0.3333333 -0.3333333  0.5000000     0.3333333  0.3333333  0.5000000
                      -0.3333333  0.3333333  0.5000000     0.0000000  0.3333333  0.5000000
                       0.3333333 -0.3333333  0.5000000    -0.3333333 -0.3333333  0.5000000
                       0.0000000 -0.3333333  0.5000000     0.3333333 -0.0000000  0.5000000
                      -0.3333333 -0.0000000  0.5000000     0.0000000 -0.0000000  0.5000000
                       0.3333333  0.0000000  0.0000000    -0.3333333  0.0000000  0.0000000
                       0.0000000  0.0000000  0.0000000     0.3333333  0.3333333  0.0000000
                      -0.3333333  0.3333333  0.0000000     0.0000000  0.3333333  0.0000000
                       0.3333333 -0.3333333  0.0000000    -0.3333333 -0.3333333  0.0000000
                       0.0000000 -0.3333333  0.0000000    -0.0000000  0.3333333 -0.0000000
                       0.3333333  0.3333333 -0.0000000    -0.3333333  0.3333333 -0.0000000
                      -0.0000000 -0.3333333 -0.0000000     0.3333333 -0.3333333 -0.0000000
                      -0.3333333 -0.3333333 -0.0000000    -0.0000000 -0.0000000 -0.0000000
                       0.3333333 -0.0000000 -0.0000000    -0.3333333 -0.0000000 -0.0000000
                       0.3333333 -0.0000000  0.0000000    -0.3333333 -0.0000000  0.0000000
                      -0.0000000 -0.0000000  0.0000000     0.3333333  0.3333333  0.0000000
                      -0.3333333  0.3333333  0.0000000    -0.0000000  0.3333333  0.0000000
                       0.3333333 -0.3333333  0.0000000    -0.3333333 -0.3333333  0.0000000
                      -0.0000000 -0.3333333  0.0000000     0.0000000  0.3333333 -0.0000000
                       0.3333333  0.3333333 -0.0000000    -0.3333333  0.3333333 -0.0000000
                      -0.0000000 -0.3333333 -0.0000000     0.3333333 -0.3333333 -0.0000000
                      -0.3333333 -0.3333333 -0.0000000     0.0000000  0.0000000 -0.0000000
                       0.3333333  0.0000000 -0.0000000    -0.3333333  0.0000000 -0.0000000
                       0.3333333  0.3333333  0.5000000    -0.3333333  0.3333333  0.5000000
                      -0.0000000  0.3333333  0.5000000     0.3333333 -0.3333333  0.5000000
                      -0.3333333 -0.3333333  0.5000000    -0.0000000 -0.3333333  0.5000000
                       0.3333333  0.0000000  0.5000000    -0.3333333  0.0000000  0.5000000
                      -0.0000000  0.0000000  0.5000000     0.0000000 -0.0000000  0.5000000
                       0.3333333 -0.0000000  0.5000000    -0.3333333 -0.0000000  0.5000000
                       0.0000000  0.3333333  0.5000000     0.3333333  0.3333333  0.5000000
                      -0.3333333  0.3333333  0.5000000     0.0000000 -0.3333333  0.5000000
                       0.3333333 -0.3333333  0.5000000    -0.3333333 -0.3333333  0.5000000
                       0.3333333  0.3333333  0.5000000    -0.3333333  0.3333333  0.5000000
                      -0.0000000  0.3333333  0.5000000     0.3333333 -0.3333333  0.5000000
                      -0.3333333 -0.3333333  0.5000000    -0.0000000 -0.3333333  0.5000000
                       0.3333333 -0.0000000  0.5000000    -0.3333333 -0.0000000  0.5000000
                      -0.0000000 -0.0000000  0.5000000     0.0000000  0.0000000  0.5000000
                       0.3333333  0.0000000  0.5000000    -0.3333333  0.0000000  0.5000000
                       0.0000000  0.3333333  0.5000000     0.3333333  0.3333333  0.5000000
                      -0.3333333  0.3333333  0.5000000     0.0000000 -0.3333333  0.5000000
                       0.3333333 -0.3333333  0.5000000    -0.3333333 -0.3333333  0.5000000
                       0.3333333  0.3333333  0.0000000    -0.3333333  0.3333333  0.0000000
                      -0.0000000  0.3333333  0.0000000     0.3333333 -0.3333333  0.0000000
                      -0.3333333 -0.3333333  0.0000000    -0.0000000 -0.3333333  0.0000000
                       0.3333333 -0.0000000  0.0000000    -0.3333333 -0.0000000  0.0000000
                      -0.0000000 -0.0000000  0.0000000     0.0000000  0.0000000 -0.0000000
                       0.3333333  0.0000000 -0.0000000    -0.3333333  0.0000000 -0.0000000
                      -0.0000000  0.3333333 -0.0000000     0.3333333  0.3333333 -0.0000000
                      -0.3333333  0.3333333 -0.0000000     0.0000000 -0.3333333 -0.0000000
                       0.3333333 -0.3333333 -0.0000000    -0.3333333 -0.3333333 -0.0000000
                       0.3333333  0.3333333  0.0000000    -0.3333333  0.3333333  0.0000000
                       0.0000000  0.3333333  0.0000000     0.3333333 -0.3333333  0.0000000
                      -0.3333333 -0.3333333  0.0000000     0.0000000 -0.3333333  0.0000000
                       0.3333333 -0.0000000  0.0000000    -0.3333333 -0.0000000  0.0000000
                       0.0000000 -0.0000000  0.0000000    -0.0000000  0.0000000 -0.0000000
                       0.3333333  0.0000000 -0.0000000    -0.3333333  0.0000000 -0.0000000
                      -0.0000000  0.3333333 -0.0000000     0.3333333  0.3333333 -0.0000000
                      -0.3333333  0.3333333 -0.0000000    -0.0000000 -0.3333333 -0.0000000
                       0.3333333 -0.3333333 -0.0000000    -0.3333333 -0.3333333 -0.0000000
                      -0.0000000  0.3333333  0.5000000     0.3333333  0.3333333  0.5000000
                      -0.3333333  0.3333333  0.5000000    -0.0000000 -0.3333333  0.5000000
                       0.3333333 -0.3333333  0.5000000    -0.3333333 -0.3333333  0.5000000
                      -0.0000000 -0.0000000  0.5000000     0.3333333 -0.0000000  0.5000000
                      -0.3333333 -0.0000000  0.5000000     0.3333333  0.0000000  0.5000000
                      -0.3333333  0.0000000  0.5000000     0.0000000  0.0000000  0.5000000
                       0.3333333  0.3333333  0.5000000    -0.3333333  0.3333333  0.5000000
                       0.0000000  0.3333333  0.5000000     0.3333333 -0.3333333  0.5000000
                      -0.3333333 -0.3333333  0.5000000     0.0000000 -0.3333333  0.5000000
                       0.0000000  0.3333333  0.5000000     0.3333333  0.3333333  0.5000000
                      -0.3333333  0.3333333  0.5000000    -0.0000000 -0.3333333  0.5000000
                       0.3333333 -0.3333333  0.5000000    -0.3333333 -0.3333333  0.5000000
                       0.0000000  0.0000000  0.5000000     0.3333333  0.0000000  0.5000000
                      -0.3333333  0.0000000  0.5000000     0.3333333 -0.0000000  0.5000000
                      -0.3333333 -0.0000000  0.5000000    -0.0000000 -0.0000000  0.5000000
                       0.3333333  0.3333333  0.5000000    -0.3333333  0.3333333  0.5000000
                      -0.0000000  0.3333333  0.5000000     0.3333333 -0.3333333  0.5000000
                      -0.3333333 -0.3333333  0.5000000    -0.0000000 -0.3333333  0.5000000
                       0.0000000 -0.0000000  0.0000000     0.3333333 -0.0000000  0.0000000
                      -0.3333333 -0.0000000  0.0000000     0.0000000  0.3333333  0.0000000
                       0.3333333  0.3333333  0.0000000    -0.3333333  0.3333333  0.0000000
                       0.0000000 -0.3333333  0.0000000     0.3333333 -0.3333333  0.0000000
                      -0.3333333 -0.3333333  0.0000000     0.3333333  0.3333333 -0.0000000
                      -0.3333333  0.3333333 -0.0000000    -0.0000000  0.3333333 -0.0000000
                       0.3333333 -0.3333333 -0.0000000    -0.3333333 -0.3333333 -0.0000000
                      -0.0000000 -0.3333333 -0.0000000     0.3333333  0.0000000 -0.0000000
                      -0.3333333  0.0000000 -0.0000000    -0.0000000  0.0000000 -0.0000000
           toldfe      1.00000000E-09 Hartree
           tolsym      1.00000000E-08
            typat      1  1  1  1  1  1  1  1  1  1  1  1  1  1  1  1  1  1  2  2
                       2  2  2  2  2  2  2  2  2  2  2  2  2  2  2  2  2  2  2  2
                       2  2  2  2  2  2  2  2  2  2  2  2  2  2
         wfoptalg         114
              wtk        0.11111    0.66667    0.22222
           xangst      1.5974148930E+00 -9.2226791849E-01  3.3980086037E+00
                       3.1948297860E+00 -3.6890716739E+00  3.3980086037E+00
                       4.7922446790E+00 -6.4558754293E+00  3.3980086037E+00
                       3.1948297860E+00  1.8445358369E+00  3.3980086037E+00
                       4.7922446790E+00 -9.2226791849E-01  3.3980086037E+00
                       6.3896595720E+00 -3.6890716739E+00  3.3980086037E+00
                       4.7922446790E+00  4.6113395923E+00  3.3980086037E+00
                       6.3896595720E+00  1.8445358369E+00  3.3980086037E+00
                       7.9870744650E+00 -9.2226791849E-01  3.3980086037E+00
                       1.5974148930E+00  9.2226791849E-01  1.0194025811E+01
                       3.1948297860E+00 -1.8445358369E+00  1.0194025811E+01
                       4.7922446790E+00 -4.6113395923E+00  1.0194025811E+01
                       3.1948297860E+00  3.6890716739E+00  1.0194025811E+01
                       4.7922446790E+00  9.2226791849E-01  1.0194025811E+01
                       6.3896595720E+00 -1.8445358369E+00  1.0194025811E+01
                       4.7922446790E+00  6.4558754293E+00  1.0194025811E+01
                       6.3896595720E+00  3.6890716739E+00  1.0194025811E+01
                       7.9870744650E+00  9.2226791849E-01  1.0194025811E+01
                       1.5974148930E+00 -9.2226791849E-01  8.6340852357E+00
                       3.1948297860E+00 -3.6890716739E+00  8.6340852357E+00
                       4.7922446790E+00 -6.4558754293E+00  8.6340852357E+00
                       3.1948297860E+00  1.8445358369E+00  8.6340852357E+00
                       4.7922446790E+00 -9.2226791849E-01  8.6340852357E+00
                       6.3896595720E+00 -3.6890716739E+00  8.6340852357E+00
                       4.7922446790E+00  4.6113395923E+00  8.6340852357E+00
                       6.3896595720E+00  1.8445358369E+00  8.6340852357E+00
                       7.9870744650E+00 -9.2226791849E-01  8.6340852357E+00
                       1.5974148930E+00  9.2226791849E-01  4.9579491792E+00
                       3.1948297860E+00 -1.8445358369E+00  4.9579491792E+00
                       4.7922446790E+00 -4.6113395923E+00  4.9579491792E+00
                       3.1948297860E+00  3.6890716739E+00  4.9579491792E+00
                       4.7922446790E+00  9.2226791849E-01  4.9579491792E+00
                       6.3896595720E+00 -1.8445358369E+00  4.9579491792E+00
                       4.7922446790E+00  6.4558754293E+00  4.9579491792E+00
                       6.3896595720E+00  3.6890716739E+00  4.9579491792E+00
                       7.9870744650E+00  9.2226791849E-01  4.9579491792E+00
                       1.5974148930E+00 -9.2226791849E-01  1.1753966387E+01
                       3.1948297860E+00 -3.6890716739E+00  1.1753966387E+01
                       4.7922446790E+00 -6.4558754293E+00  1.1753966387E+01
                       3.1948297860E+00  1.8445358369E+00  1.1753966387E+01
                       4.7922446790E+00 -9.2226791849E-01  1.1753966387E+01
                       6.3896595720E+00 -3.6890716739E+00  1.1753966387E+01
                       4.7922446790E+00  4.6113395923E+00  1.1753966387E+01
                       6.3896595720E+00  1.8445358369E+00  1.1753966387E+01
                       7.9870744650E+00 -9.2226791849E-01  1.1753966387E+01
                       1.5974148930E+00  9.2226791849E-01  1.8380680282E+00
                       3.1948297860E+00 -1.8445358369E+00  1.8380680282E+00
                       4.7922446790E+00 -4.6113395923E+00  1.8380680282E+00
                       3.1948297860E+00  3.6890716739E+00  1.8380680282E+00
                       4.7922446790E+00  9.2226791849E-01  1.8380680282E+00
                       6.3896595720E+00 -1.8445358369E+00  1.8380680282E+00
                       4.7922446790E+00  6.4558754293E+00  1.8380680282E+00
                       6.3896595720E+00  3.6890716739E+00  1.8380680282E+00
                       7.9870744650E+00  9.2226791849E-01  1.8380680282E+00
            xcart      3.0186766683E+00 -1.7428337871E+00  6.4213056582E+00
                       6.0373533367E+00 -6.9713351483E+00  6.4213056582E+00
                       9.0560300050E+00 -1.2199836509E+01  6.4213056582E+00
                       6.0373533367E+00  3.4856675741E+00  6.4213056582E+00
                       9.0560300050E+00 -1.7428337871E+00  6.4213056582E+00
                       1.2074706673E+01 -6.9713351483E+00  6.4213056582E+00
                       9.0560300050E+00  8.7141689353E+00  6.4213056582E+00
                       1.2074706673E+01  3.4856675741E+00  6.4213056582E+00
                       1.5093383342E+01 -1.7428337871E+00  6.4213056582E+00
                       3.0186766683E+00  1.7428337871E+00  1.9263916975E+01
                       6.0373533367E+00 -3.4856675741E+00  1.9263916975E+01
                       9.0560300050E+00 -8.7141689353E+00  1.9263916975E+01
                       6.0373533367E+00  6.9713351483E+00  1.9263916975E+01
                       9.0560300050E+00  1.7428337871E+00  1.9263916975E+01
                       1.2074706673E+01 -3.4856675741E+00  1.9263916975E+01
                       9.0560300050E+00  1.2199836509E+01  1.9263916975E+01
                       1.2074706673E+01  6.9713351483E+00  1.9263916975E+01
                       1.5093383342E+01  1.7428337871E+00  1.9263916975E+01
                       3.0186766683E+00 -1.7428337871E+00  1.6316056503E+01
                       6.0373533367E+00 -6.9713351483E+00  1.6316056503E+01
                       9.0560300050E+00 -1.2199836509E+01  1.6316056503E+01
                       6.0373533367E+00  3.4856675741E+00  1.6316056503E+01
                       9.0560300050E+00 -1.7428337871E+00  1.6316056503E+01
                       1.2074706673E+01 -6.9713351483E+00  1.6316056503E+01
                       9.0560300050E+00  8.7141689353E+00  1.6316056503E+01
                       1.2074706673E+01  3.4856675741E+00  1.6316056503E+01
                       1.5093383342E+01 -1.7428337871E+00  1.6316056503E+01
                       3.0186766683E+00  1.7428337871E+00  9.3691661295E+00
                       6.0373533367E+00 -3.4856675741E+00  9.3691661295E+00
                       9.0560300050E+00 -8.7141689353E+00  9.3691661295E+00
                       6.0373533367E+00  6.9713351483E+00  9.3691661295E+00
                       9.0560300050E+00  1.7428337871E+00  9.3691661295E+00
                       1.2074706673E+01 -3.4856675741E+00  9.3691661295E+00
                       9.0560300050E+00  1.2199836509E+01  9.3691661295E+00
                       1.2074706673E+01  6.9713351483E+00  9.3691661295E+00
                       1.5093383342E+01  1.7428337871E+00  9.3691661295E+00
                       3.0186766683E+00 -1.7428337871E+00  2.2211777446E+01
                       6.0373533367E+00 -6.9713351483E+00  2.2211777446E+01
                       9.0560300050E+00 -1.2199836509E+01  2.2211777446E+01
                       6.0373533367E+00  3.4856675741E+00  2.2211777446E+01
                       9.0560300050E+00 -1.7428337871E+00  2.2211777446E+01
                       1.2074706673E+01 -6.9713351483E+00  2.2211777446E+01
                       9.0560300050E+00  8.7141689353E+00  2.2211777446E+01
                       1.2074706673E+01  3.4856675741E+00  2.2211777446E+01
                       1.5093383342E+01 -1.7428337871E+00  2.2211777446E+01
                       3.0186766683E+00  1.7428337871E+00  3.4734451870E+00
                       6.0373533367E+00 -3.4856675741E+00  3.4734451870E+00
                       9.0560300050E+00 -8.7141689353E+00  3.4734451870E+00
                       6.0373533367E+00  6.9713351483E+00  3.4734451870E+00
                       9.0560300050E+00  1.7428337871E+00  3.4734451870E+00
                       1.2074706673E+01 -3.4856675741E+00  3.4734451870E+00
                       9.0560300050E+00  1.2199836509E+01  3.4734451870E+00
                       1.2074706673E+01  6.9713351483E+00  3.4734451870E+00
                       1.5093383342E+01  1.7428337871E+00  3.4734451870E+00
             xred      2.2222222222E-01  1.1111111111E-01  2.5000000000E-01
                       5.5555555556E-01  1.1111111111E-01  2.5000000000E-01
                       8.8888888889E-01  1.1111111111E-01  2.5000000000E-01
                       2.2222222222E-01  4.4444444444E-01  2.5000000000E-01
                       5.5555555556E-01  4.4444444444E-01  2.5000000000E-01
                       8.8888888889E-01  4.4444444444E-01  2.5000000000E-01
                       2.2222222222E-01  7.7777777778E-01  2.5000000000E-01
                       5.5555555556E-01  7.7777777778E-01  2.5000000000E-01
                       8.8888888889E-01  7.7777777778E-01  2.5000000000E-01
                       1.1111111111E-01  2.2222222222E-01  7.5000000000E-01
                       4.4444444444E-01  2.2222222222E-01  7.5000000000E-01
                       7.7777777778E-01  2.2222222222E-01  7.5000000000E-01
                       1.1111111111E-01  5.5555555556E-01  7.5000000000E-01
                       4.4444444444E-01  5.5555555556E-01  7.5000000000E-01
                       7.7777777778E-01  5.5555555556E-01  7.5000000000E-01
                       1.1111111111E-01  8.8888888889E-01  7.5000000000E-01
                       4.4444444444E-01  8.8888888889E-01  7.5000000000E-01
                       7.7777777778E-01  8.8888888889E-01  7.5000000000E-01
                       2.2222222222E-01  1.1111111111E-01  6.3523126650E-01
                       5.5555555556E-01  1.1111111111E-01  6.3523126650E-01
                       8.8888888889E-01  1.1111111111E-01  6.3523126650E-01
                       2.2222222222E-01  4.4444444444E-01  6.3523126650E-01
                       5.5555555556E-01  4.4444444444E-01  6.3523126650E-01
                       8.8888888889E-01  4.4444444444E-01  6.3523126650E-01
                       2.2222222222E-01  7.7777777778E-01  6.3523126650E-01
                       5.5555555556E-01  7.7777777778E-01  6.3523126650E-01
                       8.8888888889E-01  7.7777777778E-01  6.3523126650E-01
                       1.1111111111E-01  2.2222222222E-01  3.6476873350E-01
                       4.4444444444E-01  2.2222222222E-01  3.6476873350E-01
                       7.7777777778E-01  2.2222222222E-01  3.6476873350E-01
                       1.1111111111E-01  5.5555555556E-01  3.6476873350E-01
                       4.4444444444E-01  5.5555555556E-01  3.6476873350E-01
                       7.7777777778E-01  5.5555555556E-01  3.6476873350E-01
                       1.1111111111E-01  8.8888888889E-01  3.6476873350E-01
                       4.4444444444E-01  8.8888888889E-01  3.6476873350E-01
                       7.7777777778E-01  8.8888888889E-01  3.6476873350E-01
                       2.2222222222E-01  1.1111111111E-01  8.6476873350E-01
                       5.5555555556E-01  1.1111111111E-01  8.6476873350E-01
                       8.8888888889E-01  1.1111111111E-01  8.6476873350E-01
                       2.2222222222E-01  4.4444444444E-01  8.6476873350E-01
                       5.5555555556E-01  4.4444444444E-01  8.6476873350E-01
                       8.8888888889E-01  4.4444444444E-01  8.6476873350E-01
                       2.2222222222E-01  7.7777777778E-01  8.6476873350E-01
                       5.5555555556E-01  7.7777777778E-01  8.6476873350E-01
                       8.8888888889E-01  7.7777777778E-01  8.6476873350E-01
                       1.1111111111E-01  2.2222222222E-01  1.3523126650E-01
                       4.4444444444E-01  2.2222222222E-01  1.3523126650E-01
                       7.7777777778E-01  2.2222222222E-01  1.3523126650E-01
                       1.1111111111E-01  5.5555555556E-01  1.3523126650E-01
                       4.4444444444E-01  5.5555555556E-01  1.3523126650E-01
                       7.7777777778E-01  5.5555555556E-01  1.3523126650E-01
                       1.1111111111E-01  8.8888888889E-01  1.3523126650E-01
                       4.4444444444E-01  8.8888888889E-01  1.3523126650E-01
                       7.7777777778E-01  8.8888888889E-01  1.3523126650E-01
            znucl       42.00000   16.00000
 
================================================================================
 
 chkinp: Checking input parameters for consistency.
 
================================================================================
== DATASET  1 ==================================================================
-   mpi_nproc: 126, omp_nthreads: -1 (-1 if OMP is not activated)
 

--- !DatasetInfo
iteration_state: {dtset: 1, }
dimensions: {natom: 54, nkpt: 3, mband: 280, nsppol: 1, nspinor: 1, nspden: 1, mpw: 741, }
cutoff_energies: {ecut:  20.0, pawecutdg:  -1.0, }
electrons: {nelect:   4.68000000E+02, charge:   0.00000000E+00, occopt:   1.00000000E+00, tsmear:   1.00000000E-02, }
meta: {optdriver: 0, ionmov: 0, optcell: 0, iscf: 7, paral_kgb: 1, }
...

 Exchange-correlation functional for the present dataset will be:
  GGA: Perdew-Burke-Ernzerhof functional - ixc=11
 Citation for XC functional:
  J.P.Perdew, K.Burke, M.Ernzerhof, PRL 77, 3865 (1996)
 
 Real(R)+Recip(G) space primitive vectors, cartesian coordinates (Bohr,Bohr^-1):
 R(1)=  9.0560300-15.6855041  0.0000000  G(1)=  0.0552118 -0.0318766  0.0000000
 R(2)=  9.0560300 15.6855041  0.0000000  G(2)=  0.0552118  0.0318766  0.0000000
 R(3)=  0.0000000  0.0000000 25.6852226  G(3)=  0.0000000  0.0000000  0.0389329
 Unit cell volume ucvol=  7.2970893E+03 bohr^3
 Angles (23,13,12)=  9.00000000E+01  9.00000000E+01  1.20000000E+02 degrees
 
 getcut: wavevector=  0.0000  0.0000  0.0000  ngfft=  75  75 108
         ecut(hartree)=     20.000   => boxcut(ratio)=   2.02972
 
--- Pseudopotential description ------------------------------------------------
- pspini: atom type   1  psp file is mo.psp8
- pspatm: opening atomic psp file    mo.psp8
- Mo    ONCVPSP-3.2.3.1  r_core=   1.45541   1.45541   1.35488
- 42.00000  14.00000    170510                znucl, zion, pspdat
    8   11    2    4       600   0.00000      pspcod,pspxc,lmax,lloc,mmax,r2well
    5.99000000000000    3.00000000000000    0.00000000000000   rchrg,fchrg,qchrg
     nproj     2     2     2
     extension_switch     1
  pspatm : epsatm=   15.95693586
         --- l  ekb(1:nproj) -->
             0   13.833287    1.350687
             1    8.015347    1.134034
             2    2.765699    0.969071
 pspatm: atomic psp has been read  and splines computed
 
- pspini: atom type   2  psp file is s.psp8
- pspatm: opening atomic psp file    s.psp8
- S     ONCVPSP-3.2.3.1  r_core=   1.45376   1.45376   1.61851
- 16.00000   6.00000    170504                znucl, zion, pspdat
    8   11    2    4       600   0.00000      pspcod,pspxc,lmax,lloc,mmax,r2well
    5.99000000000000    6.00000000000000    0.00000000000000   rchrg,fchrg,qchrg
     nproj     2     2     2
     extension_switch     1
  pspatm : epsatm=    9.01821879
         --- l  ekb(1:nproj) -->
             0    6.763951    0.574108
             1    3.227080    0.887329
             2   -3.547662   -0.986524
 pspatm: atomic psp has been read  and splines computed
 
   2.86360178E+05                                ecore*ucvol(ha*bohr**3)
--------------------------------------------------------------------------------
 
_setup2: Arith. and geom. avg. npw (full set) are     740.778     740.778
 
================================================================================

--- !BeginCycle
iteration_state: {dtset: 1, }
solver: {iscf: 7, nstep: 100, nline: 4, wfoptalg: 114, }
tolerances: {toldfe: 1.00E-09, }
...
 
     iter   Etot(hartree)      deltaE(h)  residm     vres2
 ETOT  1  -1659.1879232333    -1.659E+03 3.819E-03 9.806E+03
 ETOT  2  -1634.7196297554     2.447E+01 1.228E-03 1.231E+05
 ETOT  3  -1662.6226216004    -2.790E+01 2.554E-04 2.888E+02
 ETOT  4  -1662.7047892318    -8.217E-02 3.758E-04 6.096E+00
 ETOT  5  -1662.7082787658    -3.490E-03 1.282E-04 1.365E+00
 ETOT  6  -1662.7084438506    -1.651E-04 1.118E-04 4.018E-01
 ETOT  7  -1662.7084849826    -4.113E-05 9.108E-05 2.086E-02
 ETOT  8  -1662.7084879249    -2.942E-06 7.967E-05 1.245E-03
 ETOT  9  -1662.7084880860    -1.611E-07 1.106E-04 3.919E-05
 ETOT 10  -1662.7084880951    -9.137E-09 5.244E-05 4.822E-07
 ETOT 11  -1662.7084880954    -3.224E-10 7.717E-05 3.110E-08
 ETOT 12  -1662.7084880954     4.457E-11 3.144E-05 4.271E-10
 
 At SCF step   12, etot is converged : 
  for the second time, diff in etot=  4.457E-11 < toldfe=  1.000E-09
 
 Cartesian components of stress tensor (hartree/bohr^3)
  sigma(1 1)=  6.93603472E-04  sigma(3 2)=  0.00000000E+00
  sigma(2 2)=  6.93603472E-04  sigma(3 1)=  0.00000000E+00
  sigma(3 3)=  6.57874574E-04  sigma(2 1)=  0.00000000E+00
 

--- !ResultsGS
iteration_state: {dtset: 1, }
comment   : Summary of ground state results
lattice_vectors:
- [  9.0560300, -15.6855041,   0.0000000, ]
- [  9.0560300,  15.6855041,   0.0000000, ]
- [  0.0000000,   0.0000000,  25.6852226, ]
lattice_lengths: [  18.11206,   18.11206,   25.68522, ]
lattice_angles: [ 90.000,  90.000, 120.000, ] # degrees, (23, 13, 12)
lattice_volume:   7.2970893E+03
convergence: {deltae:  4.457E-11, res2:  4.271E-10, residm:  3.144E-05, diffor: null, }
etotal    :  -1.66270849E+03
entropy   :   0.00000000E+00
fermie    :   2.46262326E-01
cartesian_stress_tensor: # hartree/bohr^3
- [  6.93603472E-04,   0.00000000E+00,   0.00000000E+00, ]
- [  0.00000000E+00,   6.93603472E-04,   0.00000000E+00, ]
- [  0.00000000E+00,   0.00000000E+00,   6.57874574E-04, ]
pressure_GPa:  -2.0056E+01
xred      :
- [  2.2222E-01,   1.1111E-01,   2.5000E-01, Mo]
- [  5.5556E-01,   1.1111E-01,   2.5000E-01, Mo]
- [  8.8889E-01,   1.1111E-01,   2.5000E-01, Mo]
- [  2.2222E-01,   4.4444E-01,   2.5000E-01, Mo]
- [  5.5556E-01,   4.4444E-01,   2.5000E-01, Mo]
- [  8.8889E-01,   4.4444E-01,   2.5000E-01, Mo]
- [  2.2222E-01,   7.7778E-01,   2.5000E-01, Mo]
- [  5.5556E-01,   7.7778E-01,   2.5000E-01, Mo]
- [  8.8889E-01,   7.7778E-01,   2.5000E-01, Mo]
- [  1.1111E-01,   2.2222E-01,   7.5000E-01, Mo]
- [  4.4444E-01,   2.2222E-01,   7.5000E-01, Mo]
- [  7.7778E-01,   2.2222E-01,   7.5000E-01, Mo]
- [  1.1111E-01,   5.5556E-01,   7.5000E-01, Mo]
- [  4.4444E-01,   5.5556E-01,   7.5000E-01, Mo]
- [  7.7778E-01,   5.5556E-01,   7.5000E-01, Mo]
- [  1.1111E-01,   8.8889E-01,   7.5000E-01, Mo]
- [  4.4444E-01,   8.8889E-01,   7.5000E-01, Mo]
- [  7.7778E-01,   8.8889E-01,   7.5000E-01, Mo]
- [  2.2222E-01,   1.1111E-01,   6.3523E-01,  S]
- [  5.5556E-01,   1.1111E-01,   6.3523E-01,  S]
- [  8.8889E-01,   1.1111E-01,   6.3523E-01,  S]
- [  2.2222E-01,   4.4444E-01,   6.3523E-01,  S]
- [  5.5556E-01,   4.4444E-01,   6.3523E-01,  S]
- [  8.8889E-01,   4.4444E-01,   6.3523E-01,  S]
- [  2.2222E-01,   7.7778E-01,   6.3523E-01,  S]
- [  5.5556E-01,   7.7778E-01,   6.3523E-01,  S]
- [  8.8889E-01,   7.7778E-01,   6.3523E-01,  S]
- [  1.1111E-01,   2.2222E-01,   3.6477E-01,  S]
- [  4.4444E-01,   2.2222E-01,   3.6477E-01,  S]
- [  7.7778E-01,   2.2222E-01,   3.6477E-01,  S]
- [  1.1111E-01,   5.5556E-01,   3.6477E-01,  S]
- [  4.4444E-01,   5.5556E-01,   3.6477E-01,  S]
- [  7.7778E-01,   5.5556E-01,   3.6477E-01,  S]
- [  1.1111E-01,   8.8889E-01,   3.6477E-01,  S]
- [  4.4444E-01,   8.8889E-01,   3.6477E-01,  S]
- [  7.7778E-01,   8.8889E-01,   3.6477E-01,  S]
- [  2.2222E-01,   1.1111E-01,   8.6477E-01,  S]
- [  5.5556E-01,   1.1111E-01,   8.6477E-01,  S]
- [  8.8889E-01,   1.1111E-01,   8.6477E-01,  S]
- [  2.2222E-01,   4.4444E-01,   8.6477E-01,  S]
- [  5.5556E-01,   4.4444E-01,   8.6477E-01,  S]
- [  8.8889E-01,   4.4444E-01,   8.6477E-01,  S]
- [  2.2222E-01,   7.7778E-01,   8.6477E-01,  S]
- [  5.5556E-01,   7.7778E-01,   8.6477E-01,  S]
- [  8.8889E-01,   7.7778E-01,   8.6477E-01,  S]
- [  1.1111E-01,   2.2222E-01,   1.3523E-01,  S]
- [  4.4444E-01,   2.2222E-01,   1.3523E-01,  S]
- [  7.7778E-01,   2.2222E-01,   1.3523E-01,  S]
- [  1.1111E-01,   5.5556E-01,   1.3523E-01,  S]
- [  4.4444E-01,   5.5556E-01,   1.3523E-01,  S]
- [  7.7778E-01,   5.5556E-01,   1.3523E-01,  S]
- [  1.1111E-01,   8.8889E-01,   1.3523E-01,  S]
- [  4.4444E-01,   8.8889E-01,   1.3523E-01,  S]
- [  7.7778E-01,   8.8889E-01,   1.3523E-01,  S]
cartesian_forces: # hartree/bohr
- [ -7.89067066E-27,   1.33997261E-27,   1.00389090E-21, ]
- [  5.64122752E-27,  -2.56634991E-27,   1.00389090E-21, ]
- [  1.15614330E-26,  -5.00780149E-27,   1.00389090E-21, ]
- [  2.67848184E-26,  -1.24898333E-28,   1.00389090E-21, ]
- [ -5.35343975E-27,  -9.89070465E-27,   1.00389090E-21, ]
- [  4.03167166E-26,   1.06174886E-26,   1.00389090E-21, ]
- [ -4.50769612E-27,  -3.54293055E-27,   1.00389090E-21, ]
- [ -1.97046521E-27,   7.68774672E-27,   1.00389090E-21, ]
- [ -9.58215793E-27,   1.01291983E-26,   1.00389090E-21, ]
- [ -3.66195248E-27,  -1.37970272E-26,   1.00389090E-21, ]
- [ -4.08746725E-26,  -6.96096276E-27,   1.00389090E-21, ]
- [ -1.55023634E-26,   9.64090799E-27,   1.00389090E-21, ]
- [ -1.88853379E-26,  -1.28204465E-26,   1.00389090E-21, ]
- [ -5.35343975E-27,  -1.37970272E-26,   1.00389090E-21, ]
- [ -2.78977936E-28,  -1.08672853E-26,   1.00389090E-21, ]
- [  3.10399661E-27,   1.64769724E-26,   1.00389090E-21, ]
- [  3.27050239E-26,   1.79418434E-26,   1.00389090E-21, ]
- [  9.02420206E-27,   7.19945641E-27,   1.00389090E-21, ]
- [ -5.16843333E-28,   2.26060331E-28,   3.81052127E-05, ]
- [  6.46054167E-29,  -2.92748129E-28,   3.81052127E-05, ]
- [ -1.73259981E-28,  -6.38620436E-29,   3.81052127E-05, ]
- [ -3.58266401E-28,   5.31241779E-28,   3.81052127E-05, ]
- [  3.02470814E-28,   4.24428272E-28,   3.81052127E-05, ]
- [  5.40336212E-28,   7.75386937E-28,   3.81052127E-05, ]
- [ -1.75902930E-27,  -4.60597925E-28,   3.81052127E-05, ]
- [ -5.69702310E-28,   7.34696077E-29,   3.81052127E-05, ]
- [ -1.36258697E-27,  -4.75856998E-28,   3.81052127E-05, ]
- [ -4.11125379E-28,   7.34696077E-29,  -3.81052127E-05, ]
- [  8.83919564E-28,  -1.55416478E-28,  -3.81052127E-05, ]
- [ -5.16843333E-28,  -2.01193695E-28,  -3.81052127E-05, ]
- [ -1.09829208E-27,  -9.64147314E-28,  -3.81052127E-05, ]
- [ -1.60045237E-27,  -4.91116070E-28,  -3.81052127E-05, ]
- [ -1.73259981E-27,   4.09169200E-28,  -3.81052127E-05, ]
- [ -5.16843333E-28,   3.48132910E-28,  -3.81052127E-05, ]
- [  4.87477235E-28,   2.26060331E-28,  -3.81052127E-05, ]
- [ -2.26118958E-28,  -5.52152360E-28,  -3.81052127E-05, ]
- [  1.43893883E-28,  -2.46970912E-28,  -3.81052127E-05, ]
- [  2.76041326E-28,  -4.14820708E-28,  -3.81052127E-05, ]
- [ -7.28279242E-28,  -3.84302564E-28,  -3.81052127E-05, ]
- [ -9.39715151E-28,  -2.92748129E-28,  -3.81052127E-05, ]
- [ -9.39715151E-28,  -4.86029713E-29,  -3.81052127E-05, ]
- [ -3.31836913E-28,  -1.55416478E-28,  -3.81052127E-05, ]
- [ -4.11125379E-28,  -3.53784419E-28,  -3.81052127E-05, ]
- [ -1.73259981E-28,   4.85464562E-28,  -3.81052127E-05, ]
- [ -1.99689470E-28,   7.44868792E-28,  -3.81052127E-05, ]
- [ -4.90413845E-28,   2.71837549E-28,   3.81052127E-05, ]
- [ -5.96131799E-28,  -2.82575414E-30,   3.81052127E-05, ]
- [  7.78201610E-28,   2.71837549E-28,   3.81052127E-05, ]
- [ -9.39715151E-29,  -5.06375143E-28,   3.81052127E-05, ]
- [ -2.52548447E-28,  -1.09639261E-28,   3.81052127E-05, ]
- [ -1.12472157E-27,  -1.85934623E-28,   3.81052127E-05, ]
- [ -9.66144640E-28,  -2.82575414E-30,   3.81052127E-05, ]
- [  6.46054167E-28,   1.24333182E-29,   3.81052127E-05, ]
- [ -1.30972799E-27,  -1.70675550E-28,   3.81052127E-05, ]
force_length_stats: {min:   1.00389090E-21, max:   3.81052127E-05, mean:   2.54034752E-05, }
...

 Integrated electronic density in atomic spheres:
 ------------------------------------------------
 Atom  Sphere_radius  Integrated_density
    1        2.00000         10.50706320
    2        2.00000         10.50706320
    3        2.00000         10.50706320
    4        2.00000         10.50706320
    5        2.00000         10.50706320
    6        2.00000         10.50706320
    7        2.00000         10.50706320
    8        2.00000         10.50706320
    9        2.00000         10.50706320
   10        2.00000         10.50706320
   11        2.00000         10.50706320
   12        2.00000         10.50706320
   13        2.00000         10.50706320
   14        2.00000         10.50706320
   15        2.00000         10.50706320
   16        2.00000         10.50706320
   17        2.00000         10.50706320
   18        2.00000         10.50706320
   19        2.00000          3.91364553
   20        2.00000          3.91364553
   21        2.00000          3.91364553
   22        2.00000          3.91364553
   23        2.00000          3.91364553
   24        2.00000          3.91364553
   25        2.00000          3.91364553
   26        2.00000          3.91364553
   27        2.00000          3.91364553
   28        2.00000          3.91364553
   29        2.00000          3.91364553
   30        2.00000          3.91364553
   31        2.00000          3.91364553
   32        2.00000          3.91364553
   33        2.00000          3.91364553
   34        2.00000          3.91364553
   35        2.00000          3.91364553
   36        2.00000          3.91364553
   37        2.00000          3.91364553
   38        2.00000          3.91364553
   39        2.00000          3.91364553
   40        2.00000          3.91364553
   41        2.00000          3.91364553
   42        2.00000          3.91364553
   43        2.00000          3.91364553
   44        2.00000          3.91364553
   45        2.00000          3.91364553
   46        2.00000          3.91364553
   47        2.00000          3.91364553
   48        2.00000          3.91364553
   49        2.00000          3.91364553
   50        2.00000          3.91364553
   51        2.00000          3.91364553
   52        2.00000          3.91364553
   53        2.00000          3.91364553
   54        2.00000          3.91364553
================================================================================
 
 ----iterations are completed or convergence reached----
 
 Mean square residual over all n,k,spin=   25.547E-08; max=  31.443E-06
 reduced coordinates (array xred) for   54 atoms
       0.222222222222      0.111111111111      0.250000000000
       0.555555555556      0.111111111111      0.250000000000
       0.888888888889      0.111111111111      0.250000000000
       0.222222222222      0.444444444444      0.250000000000
       0.555555555556      0.444444444444      0.250000000000
       0.888888888889      0.444444444444      0.250000000000
       0.222222222222      0.777777777778      0.250000000000
       0.555555555556      0.777777777778      0.250000000000
       0.888888888889      0.777777777778      0.250000000000
       0.111111111111      0.222222222222      0.750000000000
       0.444444444444      0.222222222222      0.750000000000
       0.777777777778      0.222222222222      0.750000000000
       0.111111111111      0.555555555556      0.750000000000
       0.444444444444      0.555555555556      0.750000000000
       0.777777777778      0.555555555556      0.750000000000
       0.111111111111      0.888888888889      0.750000000000
       0.444444444444      0.888888888889      0.750000000000
       0.777777777778      0.888888888889      0.750000000000
       0.222222222222      0.111111111111      0.635231266500
       0.555555555556      0.111111111111      0.635231266500
       0.888888888889      0.111111111111      0.635231266500
       0.222222222222      0.444444444444      0.635231266500
       0.555555555556      0.444444444444      0.635231266500
       0.888888888889      0.444444444444      0.635231266500
       0.222222222222      0.777777777778      0.635231266500
       0.555555555556      0.777777777778      0.635231266500
       0.888888888889      0.777777777778      0.635231266500
       0.111111111111      0.222222222222      0.364768733500
       0.444444444444      0.222222222222      0.364768733500
       0.777777777778      0.222222222222      0.364768733500
       0.111111111111      0.555555555556      0.364768733500
       0.444444444444      0.555555555556      0.364768733500
       0.777777777778      0.555555555556      0.364768733500
       0.111111111111      0.888888888889      0.364768733500
       0.444444444444      0.888888888889      0.364768733500
       0.777777777778      0.888888888889      0.364768733500
       0.222222222222      0.111111111111      0.864768733500
       0.555555555556      0.111111111111      0.864768733500
       0.888888888889      0.111111111111      0.864768733500
       0.222222222222      0.444444444444      0.864768733500
       0.555555555556      0.444444444444      0.864768733500
       0.888888888889      0.444444444444      0.864768733500
       0.222222222222      0.777777777778      0.864768733500
       0.555555555556      0.777777777778      0.864768733500
       0.888888888889      0.777777777778      0.864768733500
       0.111111111111      0.222222222222      0.135231266500
       0.444444444444      0.222222222222      0.135231266500
       0.777777777778      0.222222222222      0.135231266500
       0.111111111111      0.555555555556      0.135231266500
       0.444444444444      0.555555555556      0.135231266500
       0.777777777778      0.555555555556      0.135231266500
       0.111111111111      0.888888888889      0.135231266500
       0.444444444444      0.888888888889      0.135231266500
       0.777777777778      0.888888888889      0.135231266500
 rms dE/dt=  4.6138E-04; max dE/dt=  9.7874E-04; dE/dt below (all hartree)
    1       0.000000000000      0.000000000000     -0.000000000000
    2      -0.000000000000     -0.000000000000      0.000000000000
    3      -0.000000000000     -0.000000000000      0.000000000000
    4      -0.000000000000     -0.000000000000      0.000000000000
    5      -0.000000000000      0.000000000000      0.000000000000
    6      -0.000000000000     -0.000000000000     -0.000000000000
    7      -0.000000000000      0.000000000000      0.000000000000
    8       0.000000000000     -0.000000000000      0.000000000000
    9       0.000000000000     -0.000000000000     -0.000000000000
   10      -0.000000000000      0.000000000000      0.000000000000
   11       0.000000000000      0.000000000000      0.000000000000
   12       0.000000000000     -0.000000000000      0.000000000000
   13      -0.000000000000      0.000000000000      0.000000000000
   14      -0.000000000000      0.000000000000      0.000000000000
   15      -0.000000000000      0.000000000000      0.000000000000
   16       0.000000000000     -0.000000000000     -0.000000000000
   17      -0.000000000000     -0.000000000000     -0.000000000000
   18       0.000000000000     -0.000000000000     -0.000000000000
   19       0.000000000000     -0.000000000000     -0.000978740872
   20      -0.000000000000     -0.000000000000     -0.000978740872
   21       0.000000000000     -0.000000000000     -0.000978740872
   22       0.000000000000     -0.000000000000     -0.000978740872
   23       0.000000000000     -0.000000000000     -0.000978740872
   24       0.000000000000     -0.000000000000     -0.000978740872
   25       0.000000000000      0.000000000000     -0.000978740872
   26       0.000000000000     -0.000000000000     -0.000978740872
   27       0.000000000000      0.000000000000     -0.000978740872
   28       0.000000000000     -0.000000000000      0.000978740872
   29      -0.000000000000     -0.000000000000      0.000978740872
   30       0.000000000000      0.000000000000      0.000978740872
   31      -0.000000000000      0.000000000000      0.000978740872
   32       0.000000000000      0.000000000000      0.000978740872
   33       0.000000000000      0.000000000000      0.000978740872
   34       0.000000000000     -0.000000000000      0.000978740872
   35      -0.000000000000     -0.000000000000      0.000978740872
   36      -0.000000000000      0.000000000000      0.000978740872
   37      -0.000000000000     -0.000000000000      0.000978740872
   38      -0.000000000000     -0.000000000000      0.000978740872
   39       0.000000000000      0.000000000000      0.000978740872
   40       0.000000000000      0.000000000000      0.000978740872
   41       0.000000000000      0.000000000000      0.000978740872
   42       0.000000000000      0.000000000000      0.000978740872
   43      -0.000000000000      0.000000000000      0.000978740872
   44       0.000000000000     -0.000000000000      0.000978740872
   45       0.000000000000     -0.000000000000      0.000978740872
   46       0.000000000000     -0.000000000000     -0.000978740872
   47       0.000000000000      0.000000000000     -0.000978740872
   48      -0.000000000000     -0.000000000000     -0.000978740872
   49      -0.000000000000      0.000000000000     -0.000978740872
   50       0.000000000000     -0.000000000000     -0.000978740872
   51       0.000000000000      0.000000000000     -0.000978740872
   52       0.000000000000      0.000000000000     -0.000978740872
   53      -0.000000000000     -0.000000000000     -0.000978740872
   54       0.000000000000      0.000000000000     -0.000978740872
 
 cartesian coordinates (angstrom) at end:
    1      1.59741489299321    -0.92226791847242     3.39800860373591
    2      3.19482978598642    -3.68907167388969     3.39800860373591
    3      4.79224467897963    -6.45587542930694     3.39800860373591
    4      3.19482978598643     1.84453583694486     3.39800860373591
    5      4.79224467897964    -0.92226791847241     3.39800860373591
    6      6.38965957197285    -3.68907167388967     3.39800860373591
    7      4.79224467897963     4.61133959236211     3.39800860373591
    8      6.38965957197285     1.84453583694484     3.39800860373591
    9      7.98707446496605    -0.92226791847242     3.39800860373591
   10      1.59741489299321     0.92226791847242    10.19402581120772
   11      3.19482978598643    -1.84453583694486    10.19402581120772
   12      4.79224467897963    -4.61133959236211    10.19402581120772
   13      3.19482978598642     3.68907167388969    10.19402581120772
   14      4.79224467897964     0.92226791847241    10.19402581120772
   15      6.38965957197285    -1.84453583694484    10.19402581120772
   16      4.79224467897963     6.45587542930694    10.19402581120772
   17      6.38965957197285     3.68907167388967    10.19402581120772
   18      7.98707446496605     0.92226791847242    10.19402581120772
   19      1.59741489299321    -0.92226791847242     8.63408523571623
   20      3.19482978598642    -3.68907167388969     8.63408523571623
   21      4.79224467897963    -6.45587542930694     8.63408523571623
   22      3.19482978598643     1.84453583694486     8.63408523571623
   23      4.79224467897964    -0.92226791847241     8.63408523571623
   24      6.38965957197285    -3.68907167388967     8.63408523571623
   25      4.79224467897963     4.61133959236211     8.63408523571623
   26      6.38965957197285     1.84453583694484     8.63408523571623
   27      7.98707446496605    -0.92226791847242     8.63408523571623
   28      1.59741489299321     0.92226791847242     4.95794917922740
   29      3.19482978598643    -1.84453583694486     4.95794917922740
   30      4.79224467897963    -4.61133959236211     4.95794917922740
   31      3.19482978598642     3.68907167388969     4.95794917922740
   32      4.79224467897964     0.92226791847241     4.95794917922740
   33      6.38965957197285    -1.84453583694484     4.95794917922740
   34      4.79224467897963     6.45587542930694     4.95794917922740
   35      6.38965957197285     3.68907167388967     4.95794917922740
   36      7.98707446496605     0.92226791847242     4.95794917922740
   37      1.59741489299321    -0.92226791847242    11.75396638669921
   38      3.19482978598642    -3.68907167388969    11.75396638669921
   39      4.79224467897963    -6.45587542930694    11.75396638669921
   40      3.19482978598643     1.84453583694486    11.75396638669921
   41      4.79224467897964    -0.92226791847241    11.75396638669921
   42      6.38965957197285    -3.68907167388967    11.75396638669921
   43      4.79224467897963     4.61133959236211    11.75396638669921
   44      6.38965957197285     1.84453583694484    11.75396638669921
   45      7.98707446496605    -0.92226791847242    11.75396638669921
   46      1.59741489299321     0.92226791847242     1.83806802824441
   47      3.19482978598643    -1.84453583694486     1.83806802824441
   48      4.79224467897963    -4.61133959236211     1.83806802824441
   49      3.19482978598642     3.68907167388969     1.83806802824441
   50      4.79224467897964     0.92226791847241     1.83806802824441
   51      6.38965957197285    -1.84453583694484     1.83806802824441
   52      4.79224467897963     6.45587542930694     1.83806802824441
   53      6.38965957197285     3.68907167388967     1.83806802824441
   54      7.98707446496605     0.92226791847242     1.83806802824441
 
 cartesian forces (hartree/bohr) at end:
    1     -0.00000000000000     0.00000000000000     0.00000000000000
    2      0.00000000000000    -0.00000000000000     0.00000000000000
    3      0.00000000000000    -0.00000000000000     0.00000000000000
    4      0.00000000000000    -0.00000000000000     0.00000000000000
    5     -0.00000000000000    -0.00000000000000     0.00000000000000
    6      0.00000000000000     0.00000000000000     0.00000000000000
    7     -0.00000000000000    -0.00000000000000     0.00000000000000
    8     -0.00000000000000     0.00000000000000     0.00000000000000
    9     -0.00000000000000     0.00000000000000     0.00000000000000
   10     -0.00000000000000    -0.00000000000000     0.00000000000000
   11     -0.00000000000000    -0.00000000000000     0.00000000000000
   12     -0.00000000000000     0.00000000000000     0.00000000000000
   13     -0.00000000000000    -0.00000000000000     0.00000000000000
   14     -0.00000000000000    -0.00000000000000     0.00000000000000
   15     -0.00000000000000    -0.00000000000000     0.00000000000000
   16      0.00000000000000     0.00000000000000     0.00000000000000
   17      0.00000000000000     0.00000000000000     0.00000000000000
   18      0.00000000000000     0.00000000000000     0.00000000000000
   19     -0.00000000000000     0.00000000000000     0.00003810521273
   20      0.00000000000000    -0.00000000000000     0.00003810521273
   21     -0.00000000000000    -0.00000000000000     0.00003810521273
   22     -0.00000000000000     0.00000000000000     0.00003810521273
   23      0.00000000000000     0.00000000000000     0.00003810521273
   24      0.00000000000000     0.00000000000000     0.00003810521273
   25     -0.00000000000000    -0.00000000000000     0.00003810521273
   26     -0.00000000000000     0.00000000000000     0.00003810521273
   27     -0.00000000000000    -0.00000000000000     0.00003810521273
   28     -0.00000000000000     0.00000000000000    -0.00003810521273
   29      0.00000000000000    -0.00000000000000    -0.00003810521273
   30     -0.00000000000000    -0.00000000000000    -0.00003810521273
   31     -0.00000000000000    -0.00000000000000    -0.00003810521273
   32     -0.00000000000000    -0.00000000000000    -0.00003810521273
   33     -0.00000000000000     0.00000000000000    -0.00003810521273
   34     -0.00000000000000     0.00000000000000    -0.00003810521273
   35      0.00000000000000     0.00000000000000    -0.00003810521273
   36     -0.00000000000000    -0.00000000000000    -0.00003810521273
   37      0.00000000000000    -0.00000000000000    -0.00003810521273
   38      0.00000000000000    -0.00000000000000    -0.00003810521273
   39     -0.00000000000000    -0.00000000000000    -0.00003810521273
   40     -0.00000000000000    -0.00000000000000    -0.00003810521273
   41     -0.00000000000000    -0.00000000000000    -0.00003810521273
   42     -0.00000000000000    -0.00000000000000    -0.00003810521273
   43     -0.00000000000000    -0.00000000000000    -0.00003810521273
   44     -0.00000000000000     0.00000000000000    -0.00003810521273
   45     -0.00000000000000     0.00000000000000    -0.00003810521273
   46     -0.00000000000000     0.00000000000000     0.00003810521273
   47     -0.00000000000000    -0.00000000000000     0.00003810521273
   48      0.00000000000000     0.00000000000000     0.00003810521273
   49     -0.00000000000000    -0.00000000000000     0.00003810521273
   50     -0.00000000000000    -0.00000000000000     0.00003810521273
   51     -0.00000000000000    -0.00000000000000     0.00003810521273
   52     -0.00000000000000    -0.00000000000000     0.00003810521273
   53      0.00000000000000     0.00000000000000     0.00003810521273
   54     -0.00000000000000    -0.00000000000000     0.00003810521273
 frms,max,avg= 1.7962970E-05 3.8105213E-05   0.000E+00  0.000E+00  0.000E+00 h/b
 
 cartesian forces (eV/Angstrom) at end:
    1     -0.00000000000000     0.00000000000000     0.00000000000000
    2      0.00000000000000    -0.00000000000000     0.00000000000000
    3      0.00000000000000    -0.00000000000000     0.00000000000000
    4      0.00000000000000    -0.00000000000000     0.00000000000000
    5     -0.00000000000000    -0.00000000000000     0.00000000000000
    6      0.00000000000000     0.00000000000000     0.00000000000000
    7     -0.00000000000000    -0.00000000000000     0.00000000000000
    8     -0.00000000000000     0.00000000000000     0.00000000000000
    9     -0.00000000000000     0.00000000000000     0.00000000000000
   10     -0.00000000000000    -0.00000000000000     0.00000000000000
   11     -0.00000000000000    -0.00000000000000     0.00000000000000
   12     -0.00000000000000     0.00000000000000     0.00000000000000
   13     -0.00000000000000    -0.00000000000000     0.00000000000000
   14     -0.00000000000000    -0.00000000000000     0.00000000000000
   15     -0.00000000000000    -0.00000000000000     0.00000000000000
   16      0.00000000000000     0.00000000000000     0.00000000000000
   17      0.00000000000000     0.00000000000000     0.00000000000000
   18      0.00000000000000     0.00000000000000     0.00000000000000
   19     -0.00000000000000     0.00000000000000     0.00195944865683
   20      0.00000000000000    -0.00000000000000     0.00195944865683
   21     -0.00000000000000    -0.00000000000000     0.00195944865683
   22     -0.00000000000000     0.00000000000000     0.00195944865683
   23      0.00000000000000     0.00000000000000     0.00195944865683
   24      0.00000000000000     0.00000000000000     0.00195944865683
   25     -0.00000000000000    -0.00000000000000     0.00195944865683
   26     -0.00000000000000     0.00000000000000     0.00195944865683
   27     -0.00000000000000    -0.00000000000000     0.00195944865683
   28     -0.00000000000000     0.00000000000000    -0.00195944865683
   29      0.00000000000000    -0.00000000000000    -0.00195944865683
   30     -0.00000000000000    -0.00000000000000    -0.00195944865683
   31     -0.00000000000000    -0.00000000000000    -0.00195944865683
   32     -0.00000000000000    -0.00000000000000    -0.00195944865683
   33     -0.00000000000000     0.00000000000000    -0.00195944865683
   34     -0.00000000000000     0.00000000000000    -0.00195944865683
   35      0.00000000000000     0.00000000000000    -0.00195944865683
   36     -0.00000000000000    -0.00000000000000    -0.00195944865683
   37      0.00000000000000    -0.00000000000000    -0.00195944865683
   38      0.00000000000000    -0.00000000000000    -0.00195944865683
   39     -0.00000000000000    -0.00000000000000    -0.00195944865683
   40     -0.00000000000000    -0.00000000000000    -0.00195944865683
   41     -0.00000000000000    -0.00000000000000    -0.00195944865683
   42     -0.00000000000000    -0.00000000000000    -0.00195944865683
   43     -0.00000000000000    -0.00000000000000    -0.00195944865683
   44     -0.00000000000000     0.00000000000000    -0.00195944865683
   45     -0.00000000000000     0.00000000000000    -0.00195944865683
   46     -0.00000000000000     0.00000000000000     0.00195944865683
   47     -0.00000000000000    -0.00000000000000     0.00195944865683
   48      0.00000000000000     0.00000000000000     0.00195944865683
   49     -0.00000000000000    -0.00000000000000     0.00195944865683
   50     -0.00000000000000    -0.00000000000000     0.00195944865683
   51     -0.00000000000000    -0.00000000000000     0.00195944865683
   52     -0.00000000000000    -0.00000000000000     0.00195944865683
   53      0.00000000000000     0.00000000000000     0.00195944865683
   54     -0.00000000000000    -0.00000000000000     0.00195944865683
 frms,max,avg= 9.2369296E-04 1.9594487E-03   0.000E+00  0.000E+00  0.000E+00 e/A
 length scales=  1.000000000000  1.000000000000  1.000000000000 bohr
              =  0.529177208590  0.529177208590  0.529177208590 angstroms
 prteigrs : about to open file abo_EIG
 Fermi (or HOMO) energy (hartree) =   0.24626   Average Vxc (hartree)=  -0.37286
 Eigenvalues (hartree) for nkpt=   3  k points:
 kpt#   1, nband=280, wtk=  0.11111, kpt=  0.0000  0.0000  0.0000 (reduced coord)
  -2.00355   -2.00345   -2.00345   -2.00345   -2.00345   -2.00345   -2.00345   -2.00338
  -2.00336   -2.00336   -2.00336   -2.00336   -2.00336   -2.00336   -2.00325   -2.00325
  -2.00325   -2.00325   -1.05718   -1.05718   -1.05718   -1.05718   -1.05706   -1.05706
  -1.05706   -1.05706   -1.05706   -1.05706   -1.05698   -1.05698   -1.05698   -1.05698
  -1.05698   -1.05698   -1.05573   -1.05573   -1.05555   -1.05555   -1.05416   -1.05395
  -1.05239   -1.05239   -1.05239   -1.05239   -1.05239   -1.05239   -1.05217   -1.05217
  -1.05217   -1.05217   -1.05217   -1.05217   -1.05108   -1.05108   -1.05108   -1.05108
  -1.04914   -1.04914   -1.04914   -1.04914   -1.04914   -1.04914   -1.04889   -1.04889
  -1.04889   -1.04889   -1.04889   -1.04889   -1.04635   -1.04635   -1.04632   -1.04632
  -0.28580   -0.28318   -0.23918   -0.23863   -0.23863   -0.23863   -0.23863   -0.23863
  -0.23863   -0.23664   -0.23664   -0.23664   -0.23664   -0.23664   -0.23664   -0.23461
  -0.21929   -0.21929   -0.21929   -0.21929   -0.21929   -0.21929   -0.21686   -0.21686
  -0.21686   -0.21686   -0.21686   -0.21686   -0.20819   -0.20819   -0.20819   -0.20819
  -0.20484   -0.20484   -0.20484   -0.20484    0.01931    0.03357    0.03357    0.03462
   0.03522    0.03522    0.03767    0.03767    0.03767    0.03767    0.03767    0.03767
   0.04281    0.04281    0.04281    0.04281    0.04281    0.04281    0.06448    0.06448
   0.06448    0.06448    0.07622    0.07622    0.07622    0.07622    0.07622    0.07622
   0.08196    0.08196    0.08196    0.08196    0.08196    0.08196    0.08204    0.08204
   0.08479    0.08479    0.08479    0.08479    0.08479    0.08479    0.08489    0.08489
   0.09347    0.09347    0.09347    0.09347    0.09347    0.09347    0.10121    0.10121
   0.10121    0.10121    0.12618    0.12618    0.12618    0.12618    0.12619    0.12619
   0.12619    0.12619    0.12619    0.12619    0.12678    0.12678    0.12678    0.12678
   0.12678    0.12678    0.13479    0.13479    0.13490    0.13490    0.14804    0.15390
   0.15390    0.15390    0.15390    0.16759    0.16759    0.16759    0.16759    0.16759
   0.16759    0.17491    0.17491    0.17518    0.17518    0.17822    0.17822    0.17822
   0.17822    0.17822    0.17822    0.17957    0.17957    0.17957    0.17957    0.17957
   0.17957    0.18059    0.18059    0.18059    0.18059    0.18059    0.18059    0.19074
   0.19455    0.19455    0.19455    0.19455    0.19455    0.19455    0.19825    0.19825
   0.19825    0.19825    0.19825    0.19825    0.22143    0.22899    0.22899    0.23101
   0.23101    0.24626    0.29069    0.29069    0.29069    0.29069    0.30952    0.30952
   0.30952    0.30952    0.30952    0.30952    0.31041    0.31041    0.31041    0.31041
   0.31041    0.31041    0.31202    0.31202    0.31202    0.31202    0.31202    0.31202
   0.32514    0.32514    0.32514    0.32514    0.32514    0.32514    0.33139    0.33140
   0.33160    0.33162    0.33583    0.33583    0.34024    0.34203    0.34389    0.34592
   0.34744    0.34744    0.34745    0.34758    0.34765    0.34983    0.35216    0.35557
 prteigrs : prtvol=0 or 1, do not print more k-points.
 

--- !EnergyTerms
iteration_state     : {dtset: 1, }
comment             : Components of total free energy in Hartree
kinetic             :  5.36516033749589E+02
hartree             :  6.24014458587626E+02
xc                  : -2.99822433117139E+02
Ewald energy        : -9.09621881062424E+02
psp_core            :  3.92430686932514E+01
local_psp           : -1.86321494619663E+03
non_local_psp       :  2.10177211250353E+02
total_energy        : -1.66270848809537E+03
total_energy_eV     : -4.52445989168434E+04
band_energy         : -1.70333723310190E+02
...

 
 Cartesian components of stress tensor (hartree/bohr^3)
  sigma(1 1)=  6.93603472E-04  sigma(3 2)=  0.00000000E+00
  sigma(2 2)=  6.93603472E-04  sigma(3 1)=  0.00000000E+00
  sigma(3 3)=  6.57874574E-04  sigma(2 1)=  0.00000000E+00
 
-Cartesian components of stress tensor (GPa)         [Pressure= -2.0056E+01 GPa]
- sigma(1 1)=  2.04065153E+01  sigma(3 2)=  0.00000000E+00
- sigma(2 2)=  2.04065153E+01  sigma(3 1)=  0.00000000E+00
- sigma(3 3)=  1.93553349E+01  sigma(2 1)=  0.00000000E+00
 
== END DATASET(S) ==============================================================
================================================================================
  
 -outvars: echo values of variables after computation  --------
-          iomode           1
            acell      1.0000000000E+00  1.0000000000E+00  1.0000000000E+00 Bohr
              amu      9.59400000E+01  3.20660000E+01
           bandpp           4
          chkprim           0
     densfor_pred           6
           diemac      1.20000000E+01
             ecut      2.00000000E+01 Hartree
           etotal     -1.6627084881E+03
            fcart     -7.8906706612E-27  1.3399726149E-27  1.0038909009E-21
                       5.6412275177E-27 -2.5663499132E-27  1.0038908999E-21
                       1.1561432971E-26 -5.0078014933E-27  1.0038909002E-21
                       2.6784818422E-26 -1.2489833315E-28  1.0038909002E-21
                      -5.3534397527E-27 -9.8907046535E-27  1.0038909004E-21
                       4.0316716601E-26  1.0617488619E-26  1.0038909017E-21
                      -4.5076961165E-27 -3.5429305453E-27  1.0038908999E-21
                      -1.9704652079E-27  7.6877467232E-27  1.0038908983E-21
                      -9.5821579336E-27  1.0129198303E-26  1.0038909008E-21
                      -3.6619524803E-27 -1.3797027182E-26  1.0038908995E-21
                      -4.0874672472E-26 -6.9609627574E-27  1.0038908994E-21
                      -1.5502363387E-26  9.6409079872E-27  1.0038908993E-21
                      -1.8885337932E-26 -1.2820446550E-26  1.0038908995E-21
                      -5.3534397527E-27 -1.3797027182E-26  1.0038909001E-21
                      -2.7897793555E-28 -1.0867285286E-26  1.0038908998E-21
                       3.1039966092E-27  1.6476972411E-26  1.0038909010E-21
                       3.2705023876E-26  1.7941843360E-26  1.0038909011E-21
                       9.0242020625E-27  7.1994564071E-27  1.0038909007E-21
                      -5.1684333322E-28  2.2606033149E-28  3.8105212728E-05
                       6.4605416653E-29 -2.9274812928E-28  3.8105212728E-05
                      -1.7325998102E-28 -6.3862043646E-29  3.8105212728E-05
                      -3.5826640144E-28  5.3124177900E-28  3.8105212728E-05
                       3.0247081433E-28  4.2442827237E-28  3.8105212728E-05
                       5.4033621201E-28  7.7538693701E-28  3.8105212728E-05
                      -1.7590292989E-27 -4.6059792541E-28  3.8105212728E-05
                      -5.6970231048E-28  7.3469607734E-29  3.8105212728E-05
                      -1.3625869694E-27 -4.7585699779E-28  3.8105212728E-05
                      -4.1112537870E-28  7.3469607734E-29 -3.8105212728E-05
                       8.8391956421E-28 -1.5541647790E-28 -3.8105212728E-05
                      -5.1684333322E-28 -2.0119369503E-28 -3.8105212728E-05
                      -1.0982920831E-27 -9.6414731381E-28 -3.8105212728E-05
                      -1.6004523671E-27 -4.9111607016E-28 -3.8105212728E-05
                      -1.7325998102E-27  4.0916920000E-28 -3.8105212728E-05
[...]
                       0.0000000  0.3333333  0.5000000     0.3333333 -0.3333333  0.5000000
                      -0.3333333 -0.3333333  0.5000000     0.0000000 -0.3333333  0.5000000
                       0.0000000  0.3333333  0.5000000     0.3333333  0.3333333  0.5000000
                      -0.3333333  0.3333333  0.5000000    -0.0000000 -0.3333333  0.5000000
                       0.3333333 -0.3333333  0.5000000    -0.3333333 -0.3333333  0.5000000
                       0.0000000  0.0000000  0.5000000     0.3333333  0.0000000  0.5000000
                      -0.3333333  0.0000000  0.5000000     0.3333333 -0.0000000  0.5000000
                      -0.3333333 -0.0000000  0.5000000    -0.0000000 -0.0000000  0.5000000
                       0.3333333  0.3333333  0.5000000    -0.3333333  0.3333333  0.5000000
                      -0.0000000  0.3333333  0.5000000     0.3333333 -0.3333333  0.5000000
                      -0.3333333 -0.3333333  0.5000000    -0.0000000 -0.3333333  0.5000000
                       0.0000000 -0.0000000  0.0000000     0.3333333 -0.0000000  0.0000000
                      -0.3333333 -0.0000000  0.0000000     0.0000000  0.3333333  0.0000000
                       0.3333333  0.3333333  0.0000000    -0.3333333  0.3333333  0.0000000
                       0.0000000 -0.3333333  0.0000000     0.3333333 -0.3333333  0.0000000
                      -0.3333333 -0.3333333  0.0000000     0.3333333  0.3333333 -0.0000000
                      -0.3333333  0.3333333 -0.0000000    -0.0000000  0.3333333 -0.0000000
                       0.3333333 -0.3333333 -0.0000000    -0.3333333 -0.3333333 -0.0000000
                      -0.0000000 -0.3333333 -0.0000000     0.3333333  0.0000000 -0.0000000
                      -0.3333333  0.0000000 -0.0000000    -0.0000000  0.0000000 -0.0000000
           toldfe      1.00000000E-09 Hartree
           tolsym      1.00000000E-08
            typat      1  1  1  1  1  1  1  1  1  1  1  1  1  1  1  1  1  1  2  2
                       2  2  2  2  2  2  2  2  2  2  2  2  2  2  2  2  2  2  2  2
                       2  2  2  2  2  2  2  2  2  2  2  2  2  2
         wfoptalg         114
              wtk        0.11111    0.66667    0.22222
           xangst      1.5974148930E+00 -9.2226791847E-01  3.3980086037E+00
                       3.1948297860E+00 -3.6890716739E+00  3.3980086037E+00
                       4.7922446790E+00 -6.4558754293E+00  3.3980086037E+00
                       3.1948297860E+00  1.8445358369E+00  3.3980086037E+00
                       4.7922446790E+00 -9.2226791847E-01  3.3980086037E+00
                       6.3896595720E+00 -3.6890716739E+00  3.3980086037E+00
                       4.7922446790E+00  4.6113395924E+00  3.3980086037E+00
                       6.3896595720E+00  1.8445358369E+00  3.3980086037E+00
                       7.9870744650E+00 -9.2226791847E-01  3.3980086037E+00
                       1.5974148930E+00  9.2226791847E-01  1.0194025811E+01
                       3.1948297860E+00 -1.8445358369E+00  1.0194025811E+01
                       4.7922446790E+00 -4.6113395924E+00  1.0194025811E+01
                       3.1948297860E+00  3.6890716739E+00  1.0194025811E+01
                       4.7922446790E+00  9.2226791847E-01  1.0194025811E+01
                       6.3896595720E+00 -1.8445358369E+00  1.0194025811E+01
                       4.7922446790E+00  6.4558754293E+00  1.0194025811E+01
                       6.3896595720E+00  3.6890716739E+00  1.0194025811E+01
                       7.9870744650E+00  9.2226791847E-01  1.0194025811E+01
                       1.5974148930E+00 -9.2226791847E-01  8.6340852357E+00
                       3.1948297860E+00 -3.6890716739E+00  8.6340852357E+00
                       4.7922446790E+00 -6.4558754293E+00  8.6340852357E+00
                       3.1948297860E+00  1.8445358369E+00  8.6340852357E+00
                       4.7922446790E+00 -9.2226791847E-01  8.6340852357E+00
                       6.3896595720E+00 -3.6890716739E+00  8.6340852357E+00
                       4.7922446790E+00  4.6113395924E+00  8.6340852357E+00
                       6.3896595720E+00  1.8445358369E+00  8.6340852357E+00
                       7.9870744650E+00 -9.2226791847E-01  8.6340852357E+00
                       1.5974148930E+00  9.2226791847E-01  4.9579491792E+00
                       3.1948297860E+00 -1.8445358369E+00  4.9579491792E+00
                       4.7922446790E+00 -4.6113395924E+00  4.9579491792E+00
                       3.1948297860E+00  3.6890716739E+00  4.9579491792E+00
                       4.7922446790E+00  9.2226791847E-01  4.9579491792E+00
                       6.3896595720E+00 -1.8445358369E+00  4.9579491792E+00
                       4.7922446790E+00  6.4558754293E+00  4.9579491792E+00
                       6.3896595720E+00  3.6890716739E+00  4.9579491792E+00
                       7.9870744650E+00  9.2226791847E-01  4.9579491792E+00
                       1.5974148930E+00 -9.2226791847E-01  1.1753966387E+01
                       3.1948297860E+00 -3.6890716739E+00  1.1753966387E+01
                       4.7922446790E+00 -6.4558754293E+00  1.1753966387E+01
                       3.1948297860E+00  1.8445358369E+00  1.1753966387E+01
                       4.7922446790E+00 -9.2226791847E-01  1.1753966387E+01
                       6.3896595720E+00 -3.6890716739E+00  1.1753966387E+01
                       4.7922446790E+00  4.6113395924E+00  1.1753966387E+01
                       6.3896595720E+00  1.8445358369E+00  1.1753966387E+01
                       7.9870744650E+00 -9.2226791847E-01  1.1753966387E+01
                       1.5974148930E+00  9.2226791847E-01  1.8380680282E+00
                       3.1948297860E+00 -1.8445358369E+00  1.8380680282E+00
                       4.7922446790E+00 -4.6113395924E+00  1.8380680282E+00
                       3.1948297860E+00  3.6890716739E+00  1.8380680282E+00
                       4.7922446790E+00  9.2226791847E-01  1.8380680282E+00
                       6.3896595720E+00 -1.8445358369E+00  1.8380680282E+00
                       4.7922446790E+00  6.4558754293E+00  1.8380680282E+00
                       6.3896595720E+00  3.6890716739E+00  1.8380680282E+00
                       7.9870744650E+00  9.2226791847E-01  1.8380680282E+00
            xcart      3.0186766683E+00 -1.7428337871E+00  6.4213056582E+00
                       6.0373533367E+00 -6.9713351482E+00  6.4213056582E+00
                       9.0560300050E+00 -1.2199836509E+01  6.4213056582E+00
                       6.0373533367E+00  3.4856675741E+00  6.4213056582E+00
                       9.0560300050E+00 -1.7428337871E+00  6.4213056582E+00
                       1.2074706673E+01 -6.9713351482E+00  6.4213056582E+00
                       9.0560300050E+00  8.7141689353E+00  6.4213056582E+00
                       1.2074706673E+01  3.4856675741E+00  6.4213056582E+00
                       1.5093383342E+01 -1.7428337871E+00  6.4213056582E+00
                       3.0186766683E+00  1.7428337871E+00  1.9263916975E+01
                       6.0373533367E+00 -3.4856675741E+00  1.9263916975E+01
                       9.0560300050E+00 -8.7141689353E+00  1.9263916975E+01
                       6.0373533367E+00  6.9713351482E+00  1.9263916975E+01
                       9.0560300050E+00  1.7428337871E+00  1.9263916975E+01
                       1.2074706673E+01 -3.4856675741E+00  1.9263916975E+01
                       9.0560300050E+00  1.2199836509E+01  1.9263916975E+01
                       1.2074706673E+01  6.9713351482E+00  1.9263916975E+01
                       1.5093383342E+01  1.7428337871E+00  1.9263916975E+01
                       3.0186766683E+00 -1.7428337871E+00  1.6316056503E+01
                       6.0373533367E+00 -6.9713351482E+00  1.6316056503E+01
                       9.0560300050E+00 -1.2199836509E+01  1.6316056503E+01
                       6.0373533367E+00  3.4856675741E+00  1.6316056503E+01
                       9.0560300050E+00 -1.7428337871E+00  1.6316056503E+01
                       1.2074706673E+01 -6.9713351482E+00  1.6316056503E+01
                       9.0560300050E+00  8.7141689353E+00  1.6316056503E+01
                       1.2074706673E+01  3.4856675741E+00  1.6316056503E+01
                       1.5093383342E+01 -1.7428337871E+00  1.6316056503E+01
                       3.0186766683E+00  1.7428337871E+00  9.3691661295E+00
                       6.0373533367E+00 -3.4856675741E+00  9.3691661295E+00
                       9.0560300050E+00 -8.7141689353E+00  9.3691661295E+00
                       6.0373533367E+00  6.9713351482E+00  9.3691661295E+00
                       9.0560300050E+00  1.7428337871E+00  9.3691661295E+00
                       1.2074706673E+01 -3.4856675741E+00  9.3691661295E+00
                       9.0560300050E+00  1.2199836509E+01  9.3691661295E+00
                       1.2074706673E+01  6.9713351482E+00  9.3691661295E+00
                       1.5093383342E+01  1.7428337871E+00  9.3691661295E+00
                       3.0186766683E+00 -1.7428337871E+00  2.2211777446E+01
                       6.0373533367E+00 -6.9713351482E+00  2.2211777446E+01
                       9.0560300050E+00 -1.2199836509E+01  2.2211777446E+01
                       6.0373533367E+00  3.4856675741E+00  2.2211777446E+01
                       9.0560300050E+00 -1.7428337871E+00  2.2211777446E+01
                       1.2074706673E+01 -6.9713351482E+00  2.2211777446E+01
                       9.0560300050E+00  8.7141689353E+00  2.2211777446E+01
                       1.2074706673E+01  3.4856675741E+00  2.2211777446E+01
                       1.5093383342E+01 -1.7428337871E+00  2.2211777446E+01
                       3.0186766683E+00  1.7428337871E+00  3.4734451870E+00
                       6.0373533367E+00 -3.4856675741E+00  3.4734451870E+00
                       9.0560300050E+00 -8.7141689353E+00  3.4734451870E+00
                       6.0373533367E+00  6.9713351482E+00  3.4734451870E+00
                       9.0560300050E+00  1.7428337871E+00  3.4734451870E+00
                       1.2074706673E+01 -3.4856675741E+00  3.4734451870E+00
                       9.0560300050E+00  1.2199836509E+01  3.4734451870E+00
                       1.2074706673E+01  6.9713351482E+00  3.4734451870E+00
                       1.5093383342E+01  1.7428337871E+00  3.4734451870E+00
             xred      2.2222222222E-01  1.1111111111E-01  2.5000000000E-01
                       5.5555555556E-01  1.1111111111E-01  2.5000000000E-01
                       8.8888888889E-01  1.1111111111E-01  2.5000000000E-01
                       2.2222222222E-01  4.4444444444E-01  2.5000000000E-01
                       5.5555555556E-01  4.4444444444E-01  2.5000000000E-01
                       8.8888888889E-01  4.4444444444E-01  2.5000000000E-01
                       2.2222222222E-01  7.7777777778E-01  2.5000000000E-01
                       5.5555555556E-01  7.7777777778E-01  2.5000000000E-01
                       8.8888888889E-01  7.7777777778E-01  2.5000000000E-01
                       1.1111111111E-01  2.2222222222E-01  7.5000000000E-01
                       4.4444444444E-01  2.2222222222E-01  7.5000000000E-01
                       7.7777777778E-01  2.2222222222E-01  7.5000000000E-01
                       1.1111111111E-01  5.5555555556E-01  7.5000000000E-01
                       4.4444444444E-01  5.5555555556E-01  7.5000000000E-01
                       7.7777777778E-01  5.5555555556E-01  7.5000000000E-01
                       1.1111111111E-01  8.8888888889E-01  7.5000000000E-01
                       4.4444444444E-01  8.8888888889E-01  7.5000000000E-01
                       7.7777777778E-01  8.8888888889E-01  7.5000000000E-01
                       2.2222222222E-01  1.1111111111E-01  6.3523126650E-01
                       5.5555555556E-01  1.1111111111E-01  6.3523126650E-01
                       8.8888888889E-01  1.1111111111E-01  6.3523126650E-01
                       2.2222222222E-01  4.4444444444E-01  6.3523126650E-01
                       5.5555555556E-01  4.4444444444E-01  6.3523126650E-01
                       8.8888888889E-01  4.4444444444E-01  6.3523126650E-01
                       2.2222222222E-01  7.7777777778E-01  6.3523126650E-01
                       5.5555555556E-01  7.7777777778E-01  6.3523126650E-01
                       8.8888888889E-01  7.7777777778E-01  6.3523126650E-01
                       1.1111111111E-01  2.2222222222E-01  3.6476873350E-01
                       4.4444444444E-01  2.2222222222E-01  3.6476873350E-01
                       7.7777777778E-01  2.2222222222E-01  3.6476873350E-01
                       1.1111111111E-01  5.5555555556E-01  3.6476873350E-01
                       4.4444444444E-01  5.5555555556E-01  3.6476873350E-01
                       7.7777777778E-01  5.5555555556E-01  3.6476873350E-01
                       1.1111111111E-01  8.8888888889E-01  3.6476873350E-01
                       4.4444444444E-01  8.8888888889E-01  3.6476873350E-01
                       7.7777777778E-01  8.8888888889E-01  3.6476873350E-01
                       2.2222222222E-01  1.1111111111E-01  8.6476873350E-01
                       5.5555555556E-01  1.1111111111E-01  8.6476873350E-01
                       8.8888888889E-01  1.1111111111E-01  8.6476873350E-01
                       2.2222222222E-01  4.4444444444E-01  8.6476873350E-01
                       5.5555555556E-01  4.4444444444E-01  8.6476873350E-01
                       8.8888888889E-01  4.4444444444E-01  8.6476873350E-01
                       2.2222222222E-01  7.7777777778E-01  8.6476873350E-01
                       5.5555555556E-01  7.7777777778E-01  8.6476873350E-01
                       8.8888888889E-01  7.7777777778E-01  8.6476873350E-01
                       1.1111111111E-01  2.2222222222E-01  1.3523126650E-01
                       4.4444444444E-01  2.2222222222E-01  1.3523126650E-01
                       7.7777777778E-01  2.2222222222E-01  1.3523126650E-01
                       1.1111111111E-01  5.5555555556E-01  1.3523126650E-01
                       4.4444444444E-01  5.5555555556E-01  1.3523126650E-01
                       7.7777777778E-01  5.5555555556E-01  1.3523126650E-01
                       1.1111111111E-01  8.8888888889E-01  1.3523126650E-01
                       4.4444444444E-01  8.8888888889E-01  1.3523126650E-01
                       7.7777777778E-01  8.8888888889E-01  1.3523126650E-01
            znucl       42.00000   16.00000
 
================================================================================


- Timing analysis has been suppressed with timopt=0



================================================================================

 Suggested references for the acknowledgment of ABINIT usage.

 The users of ABINIT have little formal obligations with respect to the ABINIT group
 (those specified in the GNU General Public License, http://www.gnu.org/copyleft/gpl.txt).
 However, it is common practice in the scientific literature,
 to acknowledge the efforts of people that have made the research possible.
 In this spirit, please find below suggested citations of work written by ABINIT developers,
 corresponding to implementations inside of ABINIT that you have used in the present run.
 Note also that it will be of great value to readers of publications presenting these results,
 to read papers enabling them to understand the theoretical formalism and details
 of the ABINIT implementation.
 For information on why they are suggested, see also https://docs.abinit.org/theory/acknowledgments.
-
- [1] Large scale ab initio calculations based on three levels of parallelization
- F. Bottin, S. Leroux, A. Knyazev, G. Zerah, Comput. Mat. Science 42, 329, (2008).
- Comment: in case LOBPCG algorithm is used (wfoptalg=4/14/114).
- Strong suggestion to cite this paper in your publications.
- This paper is also available at http://www.arxiv.org/abs/0707.3405
- DOI and bibtex: see https://docs.abinit.org/theory/bibliography/#bottin2008
-
- [2] The Abinit project: Impact, environment and recent developments.
- Computer Phys. Comm. 248, 107042 (2020).
- X.Gonze, B. Amadon, G. Antonius, F.Arnardi, L.Baguet, J.-M.Beuken,
- J.Bieder, F.Bottin, J.Bouchet, E.Bousquet, N.Brouwer, F.Bruneval,
- G.Brunin, T.Cavignac, J.-B. Charraud, Wei Chen, M.Cote, S.Cottenier,
- J.Denier, G.Geneste, Ph.Ghosez, M.Giantomassi, Y.Gillet, O.Gingras,
- D.R.Hamann, G.Hautier, Xu He, N.Helbig, N.Holzwarth, Y.Jia, F.Jollet,
- W.Lafargue-Dit-Hauret, K.Lejaeghere, M.A.L.Marques, A.Martin, C.Martins,
- H.P.C. Miranda, F.Naccarato, K. Persson, G.Petretto, V.Planes, Y.Pouillon,
- S.Prokhorenko, F.Ricci, G.-M.Rignanese, A.H.Romero, M.M.Schmitt, M.Torrent,
- M.J.van Setten, B.Van Troeye, M.J.Verstraete, G.Zerah and J.W.Zwanzig
- Comment: the fifth generic paper describing the ABINIT project.
- Note that a version of this paper, that is not formatted for Computer Phys. Comm. 
- is available at https://www.abinit.org/sites/default/files/ABINIT20.pdf .
- The licence allows the authors to put it on the Web.
- DOI and bibtex: see https://docs.abinit.org/theory/bibliography/#gonze2020
-
- [3] Optimized norm-conserving Vanderbilt pseudopotentials.
- D.R. Hamann, Phys. Rev. B 88, 085117 (2013).
- Comment: Some pseudopotential generated using the ONCVPSP code were used.
- DOI and bibtex: see https://docs.abinit.org/theory/bibliography/#hamann2013
-
- [4] ABINIT: Overview, and focus on selected capabilities
- J. Chem. Phys. 152, 124102 (2020).
- A. Romero, D.C. Allan, B. Amadon, G. Antonius, T. Applencourt, L.Baguet,
- J.Bieder, F.Bottin, J.Bouchet, E.Bousquet, F.Bruneval,
- G.Brunin, D.Caliste, M.Cote,
- J.Denier, C. Dreyer, Ph.Ghosez, M.Giantomassi, Y.Gillet, O.Gingras,
- D.R.Hamann, G.Hautier, F.Jollet, G. Jomard,
- A.Martin, 
- H.P.C. Miranda, F.Naccarato, G.Petretto, N.A. Pike, V.Planes,
- S.Prokhorenko, T. Rangel, F.Ricci, G.-M.Rignanese, M.Royo, M.Stengel, M.Torrent,
- M.J.van Setten, B.Van Troeye, M.J.Verstraete, J.Wiktor, J.W.Zwanziger, and X.Gonze.
- Comment: a global overview of ABINIT, with focus on selected capabilities .
- Note that a version of this paper, that is not formatted for J. Chem. Phys 
- is available at https://www.abinit.org/sites/default/files/ABINIT20_JPC.pdf .
- The licence allows the authors to put it on the Web.
- DOI and bibtex: see https://docs.abinit.org/theory/bibliography/#romero2020
-
- [5] Recent developments in the ABINIT software package.
- Computer Phys. Comm. 205, 106 (2016).
- X.Gonze, F.Jollet, F.Abreu Araujo, D.Adams, B.Amadon, T.Applencourt,
- C.Audouze, J.-M.Beuken, J.Bieder, A.Bokhanchuk, E.Bousquet, F.Bruneval
- D.Caliste, M.Cote, F.Dahm, F.Da Pieve, M.Delaveau, M.Di Gennaro,
- B.Dorado, C.Espejo, G.Geneste, L.Genovese, A.Gerossier, M.Giantomassi,
- Y.Gillet, D.R.Hamann, L.He, G.Jomard, J.Laflamme Janssen, S.Le Roux,
- A.Levitt, A.Lherbier, F.Liu, I.Lukacevic, A.Martin, C.Martins,
- M.J.T.Oliveira, S.Ponce, Y.Pouillon, T.Rangel, G.-M.Rignanese,
- A.H.Romero, B.Rousseau, O.Rubel, A.A.Shukri, M.Stankovski, M.Torrent,
- M.J.Van Setten, B.Van Troeye, M.J.Verstraete, D.Waroquier, J.Wiktor,
- B.Xu, A.Zhou, J.W.Zwanziger.
- Comment: the fourth generic paper describing the ABINIT project.
- Note that a version of this paper, that is not formatted for Computer Phys. Comm. 
- is available at https://www.abinit.org/sites/default/files/ABINIT16.pdf .
- The licence allows the authors to put it on the Web.
- DOI and bibtex: see https://docs.abinit.org/theory/bibliography/#gonze2016
-
- Proc.   0 individual time (sec): cpu=         93.4  wall=         94.7
 
================================================================================
 
 Calculation completed.
.Delivered   0 WARNINGs and   0 COMMENTs to log file.
+Overall time at end (sec) : cpu=      11797.9  wall=      11926.9
