
.Version 9.6.2 of ABINIT 
.(MPI version, prepared for a x86_64_linux_gnu11.2 computer) 

.Copyright (C) 1998-2021 ABINIT group . 
 ABINIT comes with ABSOLUTELY NO WARRANTY.
 It is free software, and you are welcome to redistribute it
 under certain conditions (GNU General Public License,
 see ~abinit/COPYING or http://www.gnu.org/copyleft/gpl.txt).

 ABINIT is a project of the Universite Catholique de Louvain,
 Corning Inc. and other collaborators, see ~abinit/doc/developers/contributors.txt .
 Please read https://docs.abinit.org/theory/acknowledgments for suggested
 acknowledgments of the ABINIT effort.
 For more information, see https://www.abinit.org .

.Starting date : Tue 22 Apr 2025.
- ( at 12h19 )
  
- The starting date is more than 3 years after the initial release
- of this version of ABINIT, namely Nov 2021.
- This version of ABINIT is not supported anymore.
- Action: please, switch to a more recent version of ABINIT.
- input  file    -> ab.in
- output file    -> ab.abo
- root for input  files -> abi
- root for output files -> abo


 DATASET    1 : space group Fd -3 m (#227); Bravais cF (face-center cubic)
================================================================================
 Values of the parameters that define the memory need for DATASET  1.
     intxc =       0    ionmov =       0      iscf =       7    lmnmax =       6
     lnmax =       6     mgfft =      24  mpssoang =       3    mqgrid =    3001
     natom =       2  nloc_mem =       1    nspden =       1   nspinor =       1
    nsppol =       1      nsym =      48    n1xccc =    2501    ntypat =       1
    occopt =       1   xclevel =       2
-    mband =           5        mffmem =           1         mkmem =          19
       mpw =         531          nfft =       13824          nkpt =          19
================================================================================
P This job should need less than                       6.059 Mbytes of memory.
  Rough estimation (10% accuracy) of disk space for files :
_ WF disk file :      0.772 Mbytes ; DEN or POT disk file :      0.107 Mbytes.
================================================================================


 DATASET    2 : space group Fd -3 m (#227); Bravais cF (face-center cubic)
================================================================================
 Values of the parameters that define the memory need for DATASET  2.
     intxc =       0    ionmov =       0      iscf =      -2    lmnmax =       6
     lnmax =       6     mgfft =      24  mpssoang =       3    mqgrid =    3001
     natom =       2  nloc_mem =       1    nspden =       1   nspinor =       1
    nsppol =       1      nsym =      48    n1xccc =    2501    ntypat =       1
    occopt =       1   xclevel =       2
-    mband =          20        mffmem =           1         mkmem =         125
       mpw =         531          nfft =       13824          nkpt =         125
================================================================================
P This job should need less than                      24.808 Mbytes of memory.
  Rough estimation (10% accuracy) of disk space for files :
_ WF disk file :     20.258 Mbytes ; DEN or POT disk file :      0.107 Mbytes.
================================================================================


 DATASET    3 : space group Fd -3 m (#227); Bravais cF (face-center cubic)
================================================================================
 Values of the parameters that define the memory need for DATASET  3.
     intxc =       0    ionmov =       0      iscf =      -2    lmnmax =       6
     lnmax =       6     mgfft =      24  mpssoang =       3    mqgrid =    3001
     natom =       2  nloc_mem =       1    nspden =       1   nspinor =       1
    nsppol =       1      nsym =      48    n1xccc =    2501    ntypat =       1
    occopt =       1   xclevel =       2
-    mband =          20        mffmem =           1         mkmem =         198
       mpw =         532          nfft =       13824          nkpt =         198
================================================================================
P This job should need less than                      37.367 Mbytes of memory.
  Rough estimation (10% accuracy) of disk space for files :
_ WF disk file :     32.148 Mbytes ; DEN or POT disk file :      0.107 Mbytes.
================================================================================

--------------------------------------------------------------------------------
------------- Echo of variables that govern the present computation ------------
--------------------------------------------------------------------------------
-
- outvars: echo of selected default values                                      
-   iomode0 =  0 , fftalg0 =112 , wfoptalg0 =  0
-
- outvars: echo of global parameters not present in the input file              
-  max_nthreads =    0
-
 -outvars: echo values of preprocessed input variables --------
            acell      1.8897261329E+00  1.8897261329E+00  1.8897261329E+00 Bohr
              amu      2.80855000E+01
          chkprim           0
      chksymbreak           0
           diemac      1.20000000E+01
        dosdeltae1     0.00000000E+00 Hartree
        dosdeltae2     2.57193829E-04 Hartree
        dosdeltae3     0.00000000E+00 Hartree
             ecut      1.10247976E+01 Hartree
-          fftalg         112
           getden1          0
           getden2          1
           getden3          1
           getwfk1          0
           getwfk2          1
           getwfk3          1
           iatsph2       1    2
             iscf1          7
             iscf2         -2
             iscf3         -2
           istwfk1       0    0    0    0    0    0    0    0    0    0
                         0    0    0    0    0    0    0    0    9
           istwfk3       2    0    0    0    0    0    0    0    0    0
                         0    0    0    0    0    0    0    0    0    0
                         0    0    0    0    0    0    0    0    5    0
                         0    0    0    0    0    0    0    0    0    0
                         0    0    0    0    0    0    0    0    0    0
                       outvar_i_n : Printing only first  50 k-points.
              ixc          11
           jdtset        1    2    3
              kpt1     1.00000000E-01  1.00000000E-01  1.00000000E-01
                       3.00000000E-01  1.00000000E-01  1.00000000E-01
                       5.00000000E-01  1.00000000E-01  1.00000000E-01
                      -3.00000000E-01  1.00000000E-01  1.00000000E-01
                      -1.00000000E-01  1.00000000E-01  1.00000000E-01
                       3.00000000E-01  3.00000000E-01  1.00000000E-01
                       5.00000000E-01  3.00000000E-01  1.00000000E-01
                      -3.00000000E-01  3.00000000E-01  1.00000000E-01
                      -1.00000000E-01  3.00000000E-01  1.00000000E-01
                       5.00000000E-01  5.00000000E-01  1.00000000E-01
                      -3.00000000E-01  5.00000000E-01  1.00000000E-01
                      -1.00000000E-01  5.00000000E-01  1.00000000E-01
                      -3.00000000E-01 -3.00000000E-01  1.00000000E-01
                       3.00000000E-01  3.00000000E-01  3.00000000E-01
                       5.00000000E-01  3.00000000E-01  3.00000000E-01
                      -3.00000000E-01  3.00000000E-01  3.00000000E-01
                       5.00000000E-01  5.00000000E-01  3.00000000E-01
                      -3.00000000E-01  5.00000000E-01  3.00000000E-01
                       5.00000000E-01  5.00000000E-01  5.00000000E-01
              kpt2     1.00000000E-01  1.00000000E-01  1.00000000E-01
                       3.00000000E-01  1.00000000E-01  1.00000000E-01
                       5.00000000E-01  1.00000000E-01  1.00000000E-01
                      -3.00000000E-01  1.00000000E-01  1.00000000E-01
                      -1.00000000E-01  1.00000000E-01  1.00000000E-01
                       1.00000000E-01  3.00000000E-01  1.00000000E-01
                       3.00000000E-01  3.00000000E-01  1.00000000E-01
                       5.00000000E-01  3.00000000E-01  1.00000000E-01
                      -3.00000000E-01  3.00000000E-01  1.00000000E-01
                      -1.00000000E-01  3.00000000E-01  1.00000000E-01
                       1.00000000E-01  5.00000000E-01  1.00000000E-01
                       3.00000000E-01  5.00000000E-01  1.00000000E-01
                       5.00000000E-01  5.00000000E-01  1.00000000E-01
                      -3.00000000E-01  5.00000000E-01  1.00000000E-01
                      -1.00000000E-01  5.00000000E-01  1.00000000E-01
                       1.00000000E-01 -3.00000000E-01  1.00000000E-01
                       3.00000000E-01 -3.00000000E-01  1.00000000E-01
                       5.00000000E-01 -3.00000000E-01  1.00000000E-01
                      -3.00000000E-01 -3.00000000E-01  1.00000000E-01
                      -1.00000000E-01 -3.00000000E-01  1.00000000E-01
                       1.00000000E-01 -1.00000000E-01  1.00000000E-01
                       3.00000000E-01 -1.00000000E-01  1.00000000E-01
                       5.00000000E-01 -1.00000000E-01  1.00000000E-01
                      -3.00000000E-01 -1.00000000E-01  1.00000000E-01
                      -1.00000000E-01 -1.00000000E-01  1.00000000E-01
                       1.00000000E-01  1.00000000E-01  3.00000000E-01
                       3.00000000E-01  1.00000000E-01  3.00000000E-01
                       5.00000000E-01  1.00000000E-01  3.00000000E-01
                      -3.00000000E-01  1.00000000E-01  3.00000000E-01
                      -1.00000000E-01  1.00000000E-01  3.00000000E-01
                       1.00000000E-01  3.00000000E-01  3.00000000E-01
                       3.00000000E-01  3.00000000E-01  3.00000000E-01
                       5.00000000E-01  3.00000000E-01  3.00000000E-01
                      -3.00000000E-01  3.00000000E-01  3.00000000E-01
                      -1.00000000E-01  3.00000000E-01  3.00000000E-01
                       1.00000000E-01  5.00000000E-01  3.00000000E-01
                       3.00000000E-01  5.00000000E-01  3.00000000E-01
                       5.00000000E-01  5.00000000E-01  3.00000000E-01
                      -3.00000000E-01  5.00000000E-01  3.00000000E-01
                      -1.00000000E-01  5.00000000E-01  3.00000000E-01
                       1.00000000E-01 -3.00000000E-01  3.00000000E-01
                       3.00000000E-01 -3.00000000E-01  3.00000000E-01
                       5.00000000E-01 -3.00000000E-01  3.00000000E-01
                      -3.00000000E-01 -3.00000000E-01  3.00000000E-01
                      -1.00000000E-01 -3.00000000E-01  3.00000000E-01
                       1.00000000E-01 -1.00000000E-01  3.00000000E-01
                       3.00000000E-01 -1.00000000E-01  3.00000000E-01
                       5.00000000E-01 -1.00000000E-01  3.00000000E-01
                      -3.00000000E-01 -1.00000000E-01  3.00000000E-01
                      -1.00000000E-01 -1.00000000E-01  3.00000000E-01
              kpt3     0.00000000E+00  0.00000000E+00  0.00000000E+00
                       1.78571429E-02  0.00000000E+00  1.78571429E-02
                       3.57142857E-02  0.00000000E+00  3.57142857E-02
                       5.35714286E-02  0.00000000E+00  5.35714286E-02
                       7.14285714E-02  0.00000000E+00  7.14285714E-02
                       8.92857143E-02  0.00000000E+00  8.92857143E-02
                       1.07142857E-01  0.00000000E+00  1.07142857E-01
                       1.25000000E-01  0.00000000E+00  1.25000000E-01
                       1.42857143E-01  0.00000000E+00  1.42857143E-01
                       1.60714286E-01  0.00000000E+00  1.60714286E-01
                       1.78571429E-01  0.00000000E+00  1.78571429E-01
                       1.96428571E-01  0.00000000E+00  1.96428571E-01
                       2.14285714E-01  0.00000000E+00  2.14285714E-01
                       2.32142857E-01  0.00000000E+00  2.32142857E-01
                       2.50000000E-01  0.00000000E+00  2.50000000E-01
                       2.67857143E-01  0.00000000E+00  2.67857143E-01
                       2.85714286E-01  0.00000000E+00  2.85714286E-01
                       3.03571429E-01  0.00000000E+00  3.03571429E-01
                       3.21428571E-01  0.00000000E+00  3.21428571E-01
                       3.39285714E-01  0.00000000E+00  3.39285714E-01
                       3.57142857E-01  0.00000000E+00  3.57142857E-01
                       3.75000000E-01  0.00000000E+00  3.75000000E-01
                       3.92857143E-01  0.00000000E+00  3.92857143E-01
                       4.10714286E-01  0.00000000E+00  4.10714286E-01
                       4.28571429E-01  0.00000000E+00  4.28571429E-01
                       4.46428571E-01  0.00000000E+00  4.46428571E-01
                       4.64285714E-01  0.00000000E+00  4.64285714E-01
                       4.82142857E-01  0.00000000E+00  4.82142857E-01
                       5.00000000E-01  0.00000000E+00  5.00000000E-01
                       5.00000000E-01  1.78571429E-02  5.17857143E-01
                       5.00000000E-01  3.57142857E-02  5.35714286E-01
                       5.00000000E-01  5.35714286E-02  5.53571429E-01
                       5.00000000E-01  7.14285714E-02  5.71428571E-01
                       5.00000000E-01  8.92857143E-02  5.89285714E-01
                       5.00000000E-01  1.07142857E-01  6.07142857E-01
                       5.00000000E-01  1.25000000E-01  6.25000000E-01
                       5.00000000E-01  1.42857143E-01  6.42857143E-01
                       5.00000000E-01  1.60714286E-01  6.60714286E-01
                       5.00000000E-01  1.78571429E-01  6.78571429E-01
                       5.00000000E-01  1.96428571E-01  6.96428571E-01
                       5.00000000E-01  2.14285714E-01  7.14285714E-01
                       5.00000000E-01  2.32142857E-01  7.32142857E-01
                       5.00000000E-01  2.50000000E-01  7.50000000E-01
                       4.87500000E-01  2.62500000E-01  7.50000000E-01
                       4.75000000E-01  2.75000000E-01  7.50000000E-01
                       4.62500000E-01  2.87500000E-01  7.50000000E-01
                       4.50000000E-01  3.00000000E-01  7.50000000E-01
                       4.37500000E-01  3.12500000E-01  7.50000000E-01
                       4.25000000E-01  3.25000000E-01  7.50000000E-01
                       4.12500000E-01  3.37500000E-01  7.50000000E-01
                       outvar_i_n : Printing only first  50 k-points.
           kptopt1          1
           kptopt2          3
           kptopt3        -11
         kptrlatt        5    0    0      0    5    0      0    0    5
          kptrlen1     3.71915174E+01
          kptrlen2     3.71915174E+01
          kptrlen3     3.00000000E+01
P           mkmem1         19
P           mkmem2        125
P           mkmem3        198
            natom           2
           natsph2       2
            nband1          5
            nband2         20
            nband3         20
           nbdbuf1          0
           nbdbuf2          2
           nbdbuf3          2
           ndtset           3
           ndivsm1          0
           ndivsm2          0
           ndivsm3         10
            ngfft          24      24      24
             nkpt1         19
             nkpt2        125
             nkpt3        198
            nstep          20
             nsym          48
           ntypat           1
              occ      2.000000  2.000000  2.000000  2.000000  0.000000
           prtden1          1
           prtden2          1
           prtden3          0
           prtdos1          0
           prtdos2          3
           prtdos3          0
          prtdosm1          0
          prtdosm2          1
          prtdosm3          0
           prtelf1          0
           prtelf2          2
           prtelf3          0
            rprim      0.0000000000E+00  2.7833000422E+00  2.7833000422E+00
                       2.7833000422E+00  0.0000000000E+00  2.7833000422E+00
                       2.7833000422E+00  2.7833000422E+00  0.0000000000E+00
           shiftk      5.00000000E-01  5.00000000E-01  5.00000000E-01
          spgroup         227
           symrel      1  0  0   0  1  0   0  0  1      -1  0  0   0 -1  0   0  0 -1
                       0 -1  1   0 -1  0   1 -1  0       0  1 -1   0  1  0  -1  1  0
                      -1  0  0  -1  0  1  -1  1  0       1  0  0   1  0 -1   1 -1  0
                       0  1 -1   1  0 -1   0  0 -1       0 -1  1  -1  0  1   0  0  1
                      -1  0  0  -1  1  0  -1  0  1       1  0  0   1 -1  0   1  0 -1
                       0 -1  1   1 -1  0   0 -1  0       0  1 -1  -1  1  0   0  1  0
                       1  0  0   0  0  1   0  1  0      -1  0  0   0  0 -1   0 -1  0
                       0  1 -1   0  0 -1   1  0 -1       0 -1  1   0  0  1  -1  0  1
                      -1  0  1  -1  1  0  -1  0  0       1  0 -1   1 -1  0   1  0  0
                       0 -1  0   1 -1  0   0 -1  1       0  1  0  -1  1  0   0  1 -1
                       1  0 -1   0  0 -1   0  1 -1      -1  0  1   0  0  1   0 -1  1
                       0  1  0   0  0  1   1  0  0       0 -1  0   0  0 -1  -1  0  0
                       1  0 -1   0  1 -1   0  0 -1      -1  0  1   0 -1  1   0  0  1
                       0 -1  0   0 -1  1   1 -1  0       0  1  0   0  1 -1  -1  1  0
                      -1  0  1  -1  0  0  -1  1  0       1  0 -1   1  0  0   1 -1  0
                       0  1  0   1  0  0   0  0  1       0 -1  0  -1  0  0   0  0 -1
                       0  0 -1   0  1 -1   1  0 -1       0  0  1   0 -1  1  -1  0  1
                       1 -1  0   0 -1  1   0 -1  0      -1  1  0   0  1 -1   0  1  0
                       0  0  1   1  0  0   0  1  0       0  0 -1  -1  0  0   0 -1  0
                      -1  1  0  -1  0  0  -1  0  1       1 -1  0   1  0  0   1  0 -1
                       0  0  1   0  1  0   1  0  0       0  0 -1   0 -1  0  -1  0  0
                       1 -1  0   0 -1  0   0 -1  1      -1  1  0   0  1  0   0  1 -1
                       0  0 -1   1  0 -1   0  1 -1       0  0  1  -1  0  1   0 -1  1
                      -1  1  0  -1  0  1  -1  0  0       1 -1  0   1  0 -1   1  0  0
            tnons      0.0000000  0.0000000  0.0000000     0.2500000  0.2500000  0.2500000
                       0.0000000  0.0000000  0.0000000     0.2500000  0.2500000  0.2500000
                       0.0000000  0.0000000  0.0000000     0.2500000  0.2500000  0.2500000
                       0.0000000  0.0000000  0.0000000     0.2500000  0.2500000  0.2500000
                       0.0000000  0.0000000  0.0000000     0.2500000  0.2500000  0.2500000
                       0.0000000  0.0000000  0.0000000     0.2500000  0.2500000  0.2500000
                       0.0000000  0.0000000  0.0000000     0.2500000  0.2500000  0.2500000
                       0.0000000  0.0000000  0.0000000     0.2500000  0.2500000  0.2500000
                       0.0000000  0.0000000  0.0000000     0.2500000  0.2500000  0.2500000
                       0.0000000  0.0000000  0.0000000     0.2500000  0.2500000  0.2500000
                       0.0000000  0.0000000  0.0000000     0.2500000  0.2500000  0.2500000
                       0.0000000  0.0000000  0.0000000     0.2500000  0.2500000  0.2500000
                       0.0000000  0.0000000  0.0000000     0.2500000  0.2500000  0.2500000
                       0.0000000  0.0000000  0.0000000     0.2500000  0.2500000  0.2500000
                       0.0000000  0.0000000  0.0000000     0.2500000  0.2500000  0.2500000
                       0.0000000  0.0000000  0.0000000     0.2500000  0.2500000  0.2500000
                       0.0000000  0.0000000  0.0000000     0.2500000  0.2500000  0.2500000
                       0.0000000  0.0000000  0.0000000     0.2500000  0.2500000  0.2500000
                       0.0000000  0.0000000  0.0000000     0.2500000  0.2500000  0.2500000
                       0.0000000  0.0000000  0.0000000     0.2500000  0.2500000  0.2500000
                       0.0000000  0.0000000  0.0000000     0.2500000  0.2500000  0.2500000
                       0.0000000  0.0000000  0.0000000     0.2500000  0.2500000  0.2500000
                       0.0000000  0.0000000  0.0000000     0.2500000  0.2500000  0.2500000
                       0.0000000  0.0000000  0.0000000     0.2500000  0.2500000  0.2500000
           toldfe1     1.00000000E-06 Hartree
           toldfe2     0.00000000E+00 Hartree
           toldfe3     0.00000000E+00 Hartree
           tolwfr1     0.00000000E+00
           tolwfr2     1.00000000E-10
           tolwfr3     1.00000000E-08
            typat      1  1
              wtk1       0.01600    0.04800    0.04800    0.04800    0.04800    0.04800
                         0.09600    0.09600    0.09600    0.04800    0.09600    0.04800
                         0.04800    0.01600    0.04800    0.04800    0.04800    0.04800
                         0.00800
              wtk2       0.00800    0.00800    0.00800    0.00800    0.00800    0.00800
                         0.00800    0.00800    0.00800    0.00800    0.00800    0.00800
                         0.00800    0.00800    0.00800    0.00800    0.00800    0.00800
                         0.00800    0.00800    0.00800    0.00800    0.00800    0.00800
                         0.00800    0.00800    0.00800    0.00800    0.00800    0.00800
                         0.00800    0.00800    0.00800    0.00800    0.00800    0.00800
                         0.00800    0.00800    0.00800    0.00800    0.00800    0.00800
                         0.00800    0.00800    0.00800    0.00800    0.00800    0.00800
                         0.00800    0.00800
              wtk3       1.00000    1.00000    1.00000    1.00000    1.00000    1.00000
                         1.00000    1.00000    1.00000    1.00000    1.00000    1.00000
                         1.00000    1.00000    1.00000    1.00000    1.00000    1.00000
                         1.00000    1.00000    1.00000    1.00000    1.00000    1.00000
                         1.00000    1.00000    1.00000    1.00000    1.00000    1.00000
                         1.00000    1.00000    1.00000    1.00000    1.00000    1.00000
                         1.00000    1.00000    1.00000    1.00000    1.00000    1.00000
                         1.00000    1.00000    1.00000    1.00000    1.00000    1.00000
                         1.00000    1.00000
                       outvars : Printing only first  50 k-points.
           xangst      0.0000000000E+00  0.0000000000E+00  0.0000000000E+00
                       1.3916500211E+00  1.3916500211E+00  1.3916500211E+00
            xcart      0.0000000000E+00  0.0000000000E+00  0.0000000000E+00
                       2.6298374127E+00  2.6298374127E+00  2.6298374127E+00
             xred      0.0000000000E+00  0.0000000000E+00  0.0000000000E+00
                       2.5000000000E-01  2.5000000000E-01  2.5000000000E-01
            znucl       14.00000

================================================================================

 chkinp: Checking input parameters for consistency, jdtset=   1.

 chkinp: Checking input parameters for consistency, jdtset=   2.

 chkinp: Checking input parameters for consistency, jdtset=   3.

================================================================================
== DATASET  1 ==================================================================
-   mpi_nproc: 1, omp_nthreads: -1 (-1 if OMP is not activated)


--- !DatasetInfo
iteration_state: {dtset: 1, }
dimensions: {natom: 2, nkpt: 19, mband: 5, nsppol: 1, nspinor: 1, nspden: 1, mpw: 531, }
cutoff_energies: {ecut:  11.0, pawecutdg:  -1.0, }
electrons: {nelect:   8.00000000E+00, charge:   0.00000000E+00, occopt:   1.00000000E+00, tsmear:   1.00000000E-02, }
meta: {optdriver: 0, ionmov: 0, optcell: 0, iscf: 7, paral_kgb: 0, }
...

 Exchange-correlation functional for the present dataset will be:
  GGA: Perdew-Burke-Ernzerhof functional - ixc=11
 Citation for XC functional:
  J.P.Perdew, K.Burke, M.Ernzerhof, PRL 77, 3865 (1996)

 Real(R)+Recip(G) space primitive vectors, cartesian coordinates (Bohr,Bohr^-1):
 R(1)=  0.0000000  5.2596748  5.2596748  G(1)= -0.0950629  0.0950629  0.0950629
 R(2)=  5.2596748  0.0000000  5.2596748  G(2)=  0.0950629 -0.0950629  0.0950629
 R(3)=  5.2596748  5.2596748  0.0000000  G(3)=  0.0950629  0.0950629 -0.0950629
 Unit cell volume ucvol=  2.9100917E+02 bohr^3
 Angles (23,13,12)=  6.00000000E+01  6.00000000E+01  6.00000000E+01 degrees

 getcut: wavevector=  0.0000  0.0000  0.0000  ngfft=  24  24  24
         ecut(hartree)=     11.025   => boxcut(ratio)=   2.15867

--- Pseudopotential description ------------------------------------------------
- pspini: atom type   1  psp file is si.psp8
- pspatm: opening atomic psp file    si.psp8
- Si    ONCVPSP-3.2.3.1  r_core=   1.60303   1.72197   1.91712
- 14.00000   4.00000    170510                znucl, zion, pspdat
    8   11    2    4       600   0.00000      pspcod,pspxc,lmax,lloc,mmax,r2well
    5.99000000000000    4.00000000000000    0.00000000000000   rchrg,fchrg,qchrg
     nproj     2     2     2
     extension_switch     1
  pspatm : epsatm=    9.34321699
         --- l  ekb(1:nproj) -->
             0    5.168965    0.829883
             1    2.571282    0.578307
             2   -2.427311   -0.488097
 pspatm: atomic psp has been read  and splines computed

   1.49491472E+02                                ecore*ucvol(ha*bohr**3)
--------------------------------------------------------------------------------

_setup2: Arith. and geom. avg. npw (full set) are     510.032     510.009

================================================================================

--- !BeginCycle
iteration_state: {dtset: 1, }
solver: {iscf: 7, nstep: 20, nline: 4, wfoptalg: 0, }
tolerances: {toldfe: 1.00E-06, }
...

     iter   Etot(hartree)      deltaE(h)  residm     vres2
 ETOT  1  -8.4583118899563    -8.458E+00 7.170E-03 2.384E+00
 ETOT  2  -8.4610059969854    -2.694E-03 9.501E-05 4.347E-02
 ETOT  3  -8.4610269850661    -2.099E-05 8.862E-05 3.326E-04
 ETOT  4  -8.4610270696095    -8.454E-08 7.119E-05 1.461E-05
 ETOT  5  -8.4610270732665    -3.657E-09 1.144E-04 3.094E-07

 At SCF step    5, etot is converged : 
  for the second time, diff in etot=  3.657E-09 < toldfe=  1.000E-06

 Cartesian components of stress tensor (hartree/bohr^3)
  sigma(1 1)=  1.45597637E-04  sigma(3 2)=  0.00000000E+00
  sigma(2 2)=  1.45597637E-04  sigma(3 1)=  0.00000000E+00
  sigma(3 3)=  1.45597637E-04  sigma(2 1)=  0.00000000E+00


--- !ResultsGS
iteration_state: {dtset: 1, }
comment   : Summary of ground state results
lattice_vectors:
- [  0.0000000,   5.2596748,   5.2596748, ]
- [  5.2596748,   0.0000000,   5.2596748, ]
- [  5.2596748,   5.2596748,   0.0000000, ]
lattice_lengths: [   7.43830,    7.43830,    7.43830, ]
lattice_angles: [ 60.000,  60.000,  60.000, ] # degrees, (23, 13, 12)
lattice_volume:   2.9100917E+02
convergence: {deltae: -3.657E-09, res2:  3.094E-07, residm:  1.144E-04, diffor: null, }
etotal    :  -8.46102707E+00
entropy   :   0.00000000E+00
fermie    :   1.30437871E-01
cartesian_stress_tensor: # hartree/bohr^3
- [  1.45597637E-04,   0.00000000E+00,   0.00000000E+00, ]
- [  0.00000000E+00,   1.45597637E-04,   0.00000000E+00, ]
- [  0.00000000E+00,   0.00000000E+00,   1.45597637E-04, ]
pressure_GPa:  -4.2836E+00
xred      :
- [  0.0000E+00,   0.0000E+00,   0.0000E+00, Si]
- [  2.5000E-01,   2.5000E-01,   2.5000E-01, Si]
cartesian_forces: # hartree/bohr
- [  2.04776555E-28,  -6.14329664E-28,   1.02388277E-27, ]
- [ -2.04776555E-28,   6.14329664E-28,  -1.02388277E-27, ]
force_length_stats: {min:   1.21147443E-27, max:   1.21147443E-27, mean:   1.21147443E-27, }
...

 Integrated electronic density in atomic spheres:
 ------------------------------------------------
 Atom  Sphere_radius  Integrated_density
    1        2.00000          1.67756824
    2        2.00000          1.67756824
================================================================================

 ----iterations are completed or convergence reached----

 Mean square residual over all n,k,spin=   12.202E-07; max=  11.437E-05
 reduced coordinates (array xred) for    2 atoms
       0.000000000000      0.000000000000      0.000000000000
       0.250000000000      0.250000000000      0.250000000000
 rms dE/dt=  6.9245E-27; max dE/dt=  1.5079E-26; dE/dt below (all hartree)
    1      -0.000000000000      0.000000000000      0.000000000000
    2       0.000000000000      0.000000000000      0.000000000000

 cartesian coordinates (angstrom) at end:
    1      0.00000000000000     0.00000000000000     0.00000000000000
    2      1.39165002107500     1.39165002107500     1.39165002107500

 cartesian forces (hartree/bohr) at end:
    1      0.00000000000000    -0.00000000000000     0.00000000000000
    2     -0.00000000000000     0.00000000000000    -0.00000000000000
 frms,max,avg= 6.9944509E-28 1.0238828E-27   0.000E+00  0.000E+00  0.000E+00 h/b

 cartesian forces (eV/Angstrom) at end:
    1      0.00000000000000    -0.00000000000000     0.00000000000000
    2     -0.00000000000000     0.00000000000000    -0.00000000000000
 frms,max,avg= 3.5966910E-26 5.2650165E-26   0.000E+00  0.000E+00  0.000E+00 e/A
 length scales=  1.889726132886  1.889726132886  1.889726132886 bohr
              =  1.000000000000  1.000000000000  1.000000000000 angstroms
 prteigrs : about to open file abo_DS1_EIG
 Fermi (or HOMO) energy (hartree) =   0.13044   Average Vxc (hartree)=  -0.33119
 Eigenvalues (hartree) for nkpt=  19  k points:
 kpt#   1, nband=  5, wtk=  0.01600, kpt=  0.1000  0.1000  0.1000 (reduced coord)
  -0.27991    0.09492    0.13044    0.13044    0.22313
 prteigrs : prtvol=0 or 1, do not print more k-points.


--- !EnergyTerms
iteration_state     : {dtset: 1, }
comment             : Components of total free energy in Hartree
kinetic             :  2.97811798154530E+00
hartree             :  5.80319631700388E-01
xc                  : -3.05129584508994E+00
Ewald energy        : -8.19335525187598E+00
psp_core            :  5.13700202344247E-01
local_psp           : -2.42505433537270E+00
non_local_psp       :  1.13654054348219E+00
total_energy        : -8.46102707326649E+00
total_energy_eV     : -2.30236255540507E+02
band_energy         : -3.31652871955094E-01
...


 Cartesian components of stress tensor (hartree/bohr^3)
  sigma(1 1)=  1.45597637E-04  sigma(3 2)=  0.00000000E+00
  sigma(2 2)=  1.45597637E-04  sigma(3 1)=  0.00000000E+00
  sigma(3 3)=  1.45597637E-04  sigma(2 1)=  0.00000000E+00

-Cartesian components of stress tensor (GPa)         [Pressure= -4.2836E+00 GPa]
- sigma(1 1)=  4.28362966E+00  sigma(3 2)=  0.00000000E+00
- sigma(2 2)=  4.28362966E+00  sigma(3 1)=  0.00000000E+00
- sigma(3 3)=  4.28362966E+00  sigma(2 1)=  0.00000000E+00

================================================================================
== DATASET  2 ==================================================================
-   mpi_nproc: 1, omp_nthreads: -1 (-1 if OMP is not activated)


--- !DatasetInfo
iteration_state: {dtset: 2, }
dimensions: {natom: 2, nkpt: 125, mband: 20, nsppol: 1, nspinor: 1, nspden: 1, mpw: 531, }
cutoff_energies: {ecut:  11.0, pawecutdg:  -1.0, }
electrons: {nelect:   8.00000000E+00, charge:   0.00000000E+00, occopt:   1.00000000E+00, tsmear:   1.00000000E-02, }
meta: {optdriver: 0, ionmov: 0, optcell: 0, iscf: -2, paral_kgb: 0, }
...

 mkfilename : getwfk/=0, take file _WFK from output of DATASET   1.

 mkfilename : getden/=0, take file _DEN from output of DATASET   1.

 Exchange-correlation functional for the present dataset will be:
  GGA: Perdew-Burke-Ernzerhof functional - ixc=11
 Citation for XC functional:
  J.P.Perdew, K.Burke, M.Ernzerhof, PRL 77, 3865 (1996)

 Real(R)+Recip(G) space primitive vectors, cartesian coordinates (Bohr,Bohr^-1):
 R(1)=  0.0000000  5.2596748  5.2596748  G(1)= -0.0950629  0.0950629  0.0950629
 R(2)=  5.2596748  0.0000000  5.2596748  G(2)=  0.0950629 -0.0950629  0.0950629
 R(3)=  5.2596748  5.2596748  0.0000000  G(3)=  0.0950629  0.0950629 -0.0950629
 Unit cell volume ucvol=  2.9100917E+02 bohr^3
 Angles (23,13,12)=  6.00000000E+01  6.00000000E+01  6.00000000E+01 degrees

 getcut: wavevector=  0.0000  0.0000  0.0000  ngfft=  24  24  24
         ecut(hartree)=     11.025   => boxcut(ratio)=   2.15867
--------------------------------------------------------------------------------

-inwffil : will read wavefunctions from disk file abo_DS1_WFK

================================================================================
 prteigrs : about to open file abo_DS2_EIG
 Non-SCF case, kpt    1 (  0.10000  0.10000  0.10000), residuals and eigenvalues=
  4.11E-12  2.26E-12  2.03E-12  2.01E-12  1.35E-11  1.04E-11  3.62E-11  4.03E-11
  2.32E-11  6.31E-11  4.20E-11  2.53E-11  6.00E-11  8.40E-11  2.64E-11  6.68E-11
  4.31E-11  3.61E-11  2.36E-08  6.65E-07
 -2.7991E-01  9.4914E-02  1.3044E-01  1.3044E-01  2.2313E-01  2.4004E-01
  2.4004E-01  2.7174E-01  4.0833E-01  4.0833E-01  4.3792E-01  5.2708E-01
  5.6950E-01  5.6950E-01  7.1587E-01  9.0549E-01  9.0549E-01  9.0606E-01
  9.8103E-01  9.8103E-01
  prteigrs : nnsclo,ikpt=   20    1 max resid (incl. the buffer)=  6.65324E-07
 prteigrs : prtvol=0 or 1, do not print more k-points.

  prteigrs : nnsclo,ikpt=   20    2 max resid (incl. the buffer)=  3.35678E-08
  prteigrs : nnsclo,ikpt=   20    3 max resid (incl. the buffer)=  2.99120E-09
  prteigrs : nnsclo,ikpt=   20    4 max resid (incl. the buffer)=  5.04094E-06
  prteigrs : nnsclo,ikpt=   20    5 max resid (incl. the buffer)=  2.62486E-10
  prteigrs : nnsclo,ikpt=   20    6 max resid (incl. the buffer)=  2.21936E-08
  prteigrs : nnsclo,ikpt=   20    7 max resid (incl. the buffer)=  3.38188E-07
  prteigrs : nnsclo,ikpt=   20    8 max resid (incl. the buffer)=  6.96975E-08
  prteigrs : nnsclo,ikpt=   20    9 max resid (incl. the buffer)=  1.69599E-07
  prteigrs : nnsclo,ikpt=   20   10 max resid (incl. the buffer)=  9.01947E-07
  prteigrs : nnsclo,ikpt=   20   11 max resid (incl. the buffer)=  1.28148E-08
  prteigrs : nnsclo,ikpt=   20   12 max resid (incl. the buffer)=  3.77516E-08
  prteigrs : nnsclo,ikpt=   20   13 max resid (incl. the buffer)=  1.23668E-05
  prteigrs : nnsclo,ikpt=   20   14 max resid (incl. the buffer)=  1.56347E-08
  prteigrs : nnsclo,ikpt=   20   15 max resid (incl. the buffer)=  3.99822E-09
  prteigrs : nnsclo,ikpt=   20   16 max resid (incl. the buffer)=  4.61186E-05
  prteigrs : nnsclo,ikpt=   20   17 max resid (incl. the buffer)=  2.17282E-05
  prteigrs : nnsclo,ikpt=   20   18 max resid (incl. the buffer)=  4.58372E-07
  prteigrs : nnsclo,ikpt=   20   19 max resid (incl. the buffer)=  1.30939E-06
  prteigrs : nnsclo,ikpt=   20   20 max resid (incl. the buffer)=  6.66008E-07
  prteigrs : nnsclo,ikpt=   20   21 max resid (incl. the buffer)=  6.36264E-10
  prteigrs : nnsclo,ikpt=   20   22 max resid (incl. the buffer)=  1.68098E-06
  prteigrs : nnsclo,ikpt=   20   23 max resid (incl. the buffer)=  1.72196E-08
  prteigrs : nnsclo,ikpt=   20   24 max resid (incl. the buffer)=  3.35690E-07
  prteigrs : nnsclo,ikpt=   20   25 max resid (incl. the buffer)=  1.13629E-09
  prteigrs : nnsclo,ikpt=   20   26 max resid (incl. the buffer)=  8.81790E-09
  prteigrs : nnsclo,ikpt=   20   27 max resid (incl. the buffer)=  5.32433E-07
  prteigrs : nnsclo,ikpt=   20   28 max resid (incl. the buffer)=  4.63107E-08
  prteigrs : nnsclo,ikpt=   20   29 max resid (incl. the buffer)=  9.06158E-07
  prteigrs : nnsclo,ikpt=   20   30 max resid (incl. the buffer)=  6.41920E-07
  prteigrs : nnsclo,ikpt=   20   31 max resid (incl. the buffer)=  3.72195E-07
  prteigrs : nnsclo,ikpt=   20   32 max resid (incl. the buffer)=  1.72852E-06
  prteigrs : nnsclo,ikpt=   20   33 max resid (incl. the buffer)=  1.81886E-07
  prteigrs : nnsclo,ikpt=   20   34 max resid (incl. the buffer)=  6.26577E-06
  prteigrs : nnsclo,ikpt=   20   35 max resid (incl. the buffer)=  2.25728E-06
  prteigrs : nnsclo,ikpt=   20   36 max resid (incl. the buffer)=  2.54230E-07
  prteigrs : nnsclo,ikpt=   20   37 max resid (incl. the buffer)=  1.40540E-06
  prteigrs : nnsclo,ikpt=   20   38 max resid (incl. the buffer)=  2.94571E-05
  prteigrs : nnsclo,ikpt=   20   39 max resid (incl. the buffer)=  2.70876E-09
  prteigrs : nnsclo,ikpt=   20   40 max resid (incl. the buffer)=  2.78286E-10
  prteigrs : nnsclo,ikpt=   20   41 max resid (incl. the buffer)=  2.40651E-06
  prteigrs : nnsclo,ikpt=   20   42 max resid (incl. the buffer)=  1.51620E-05
  prteigrs : nnsclo,ikpt=   20   43 max resid (incl. the buffer)=  4.39599E-10
  prteigrs : nnsclo,ikpt=   20   44 max resid (incl. the buffer)=  4.33237E-06
  prteigrs : nnsclo,ikpt=   20   45 max resid (incl. the buffer)=  1.56856E-05
  prteigrs : nnsclo,ikpt=   20   46 max resid (incl. the buffer)=  5.31167E-08
  prteigrs : nnsclo,ikpt=   20   47 max resid (incl. the buffer)=  1.33863E-06
  prteigrs : nnsclo,ikpt=   20   48 max resid (incl. the buffer)=  1.08772E-07
  prteigrs : nnsclo,ikpt=   20   49 max resid (incl. the buffer)=  2.50433E-06
  prteigrs : nnsclo,ikpt=   20   50 max resid (incl. the buffer)=  1.99131E-05
  prteigrs : nnsclo,ikpt=   20   51 max resid (incl. the buffer)=  6.93265E-09
  prteigrs : nnsclo,ikpt=   20   52 max resid (incl. the buffer)=  4.14084E-07
  prteigrs : nnsclo,ikpt=   20   53 max resid (incl. the buffer)=  1.78280E-04
  prteigrs : nnsclo,ikpt=   20   54 max resid (incl. the buffer)=  9.24486E-09
  prteigrs : nnsclo,ikpt=   20   55 max resid (incl. the buffer)=  1.50530E-08
  prteigrs : nnsclo,ikpt=   20   56 max resid (incl. the buffer)=  1.88804E-06
  prteigrs : nnsclo,ikpt=   20   57 max resid (incl. the buffer)=  4.26567E-08
  prteigrs : nnsclo,ikpt=   20   58 max resid (incl. the buffer)=  7.67635E-05
  prteigrs : nnsclo,ikpt=   20   59 max resid (incl. the buffer)=  4.28444E-10
  prteigrs : nnsclo,ikpt=   20   60 max resid (incl. the buffer)=  1.19229E-09
  prteigrs : nnsclo,ikpt=   20   61 max resid (incl. the buffer)=  1.51561E-04
  prteigrs : nnsclo,ikpt=   20   62 max resid (incl. the buffer)=  6.45373E-06
  prteigrs : nnsclo,ikpt=   20   64 max resid (incl. the buffer)=  1.33843E-04
  prteigrs : nnsclo,ikpt=   20   65 max resid (incl. the buffer)=  9.36604E-06
  prteigrs : nnsclo,ikpt=   20   66 max resid (incl. the buffer)=  5.56336E-09
  prteigrs : nnsclo,ikpt=   20   67 max resid (incl. the buffer)=  8.71914E-10
  prteigrs : nnsclo,ikpt=   20   68 max resid (incl. the buffer)=  2.62602E-05
  prteigrs : nnsclo,ikpt=   20   69 max resid (incl. the buffer)=  2.76008E-06
  prteigrs : nnsclo,ikpt=   20   70 max resid (incl. the buffer)=  4.30156E-07
  prteigrs : nnsclo,ikpt=   20   71 max resid (incl. the buffer)=  1.38998E-07
  prteigrs : nnsclo,ikpt=   20   72 max resid (incl. the buffer)=  1.31138E-09
  prteigrs : nnsclo,ikpt=   20   73 max resid (incl. the buffer)=  1.86030E-04
  prteigrs : nnsclo,ikpt=   20   74 max resid (incl. the buffer)=  1.49559E-07
  prteigrs : nnsclo,ikpt=   20   75 max resid (incl. the buffer)=  3.23669E-08
  prteigrs : nnsclo,ikpt=   20   76 max resid (incl. the buffer)=  1.32541E-05
  prteigrs : nnsclo,ikpt=   20   77 max resid (incl. the buffer)=  7.73030E-07
  prteigrs : nnsclo,ikpt=   20   78 max resid (incl. the buffer)=  1.50205E-08
  prteigrs : nnsclo,ikpt=   20   79 max resid (incl. the buffer)=  3.49636E-06
  prteigrs : nnsclo,ikpt=   20   80 max resid (incl. the buffer)=  1.23838E-08
  prteigrs : nnsclo,ikpt=   20   81 max resid (incl. the buffer)=  2.87145E-07
  prteigrs : nnsclo,ikpt=   20   82 max resid (incl. the buffer)=  1.20439E-06
  prteigrs : nnsclo,ikpt=   20   83 max resid (incl. the buffer)=  3.70686E-09
  prteigrs : nnsclo,ikpt=   20   84 max resid (incl. the buffer)=  4.67846E-06
  prteigrs : nnsclo,ikpt=   20   85 max resid (incl. the buffer)=  6.73976E-07
  prteigrs : nnsclo,ikpt=   20   86 max resid (incl. the buffer)=  1.37496E-07
  prteigrs : nnsclo,ikpt=   20   88 max resid (incl. the buffer)=  6.97744E-05
  prteigrs : nnsclo,ikpt=   20   89 max resid (incl. the buffer)=  6.36854E-08
  prteigrs : nnsclo,ikpt=   20   90 max resid (incl. the buffer)=  1.69915E-08
  prteigrs : nnsclo,ikpt=   20   91 max resid (incl. the buffer)=  3.69104E-06
  prteigrs : nnsclo,ikpt=   20   92 max resid (incl. the buffer)=  1.05154E-06
  prteigrs : nnsclo,ikpt=   20   93 max resid (incl. the buffer)=  2.17955E-07
  prteigrs : nnsclo,ikpt=   20   94 max resid (incl. the buffer)=  3.97600E-07
  prteigrs : nnsclo,ikpt=   20   95 max resid (incl. the buffer)=  4.13997E-07
  prteigrs : nnsclo,ikpt=   20   96 max resid (incl. the buffer)=  1.23014E-07
  prteigrs : nnsclo,ikpt=   20   97 max resid (incl. the buffer)=  2.55862E-06
  prteigrs : nnsclo,ikpt=   20   98 max resid (incl. the buffer)=  4.72394E-08
  prteigrs : nnsclo,ikpt=   20   99 max resid (incl. the buffer)=  3.13717E-07
  prteigrs : nnsclo,ikpt=   20  100 max resid (incl. the buffer)=  7.00445E-09
  prteigrs : nnsclo,ikpt=   20  101 max resid (incl. the buffer)=  4.01206E-09
  prteigrs : nnsclo,ikpt=   20  102 max resid (incl. the buffer)=  4.29459E-08
  prteigrs : nnsclo,ikpt=   20  103 max resid (incl. the buffer)=  1.71436E-08
  prteigrs : nnsclo,ikpt=   20  104 max resid (incl. the buffer)=  4.82809E-08
  prteigrs : nnsclo,ikpt=   20  105 max resid (incl. the buffer)=  1.06994E-10
  prteigrs : nnsclo,ikpt=   20  106 max resid (incl. the buffer)=  1.79773E-06
  prteigrs : nnsclo,ikpt=   20  107 max resid (incl. the buffer)=  4.33488E-06
  prteigrs : nnsclo,ikpt=   20  108 max resid (incl. the buffer)=  4.24643E-09
  prteigrs : nnsclo,ikpt=   20  109 max resid (incl. the buffer)=  6.20922E-07
  prteigrs : nnsclo,ikpt=   20  110 max resid (incl. the buffer)=  1.95879E-06
  prteigrs : nnsclo,ikpt=   20  111 max resid (incl. the buffer)=  1.37604E-09
  prteigrs : nnsclo,ikpt=   20  112 max resid (incl. the buffer)=  7.74647E-09
  prteigrs : nnsclo,ikpt=   20  113 max resid (incl. the buffer)=  5.52734E-05
  prteigrs : nnsclo,ikpt=   20  114 max resid (incl. the buffer)=  1.27927E-07
  prteigrs : nnsclo,ikpt=   20  115 max resid (incl. the buffer)=  1.31689E-09
  prteigrs : nnsclo,ikpt=   20  116 max resid (incl. the buffer)=  6.29715E-07
  prteigrs : nnsclo,ikpt=   20  117 max resid (incl. the buffer)=  9.01075E-06
  prteigrs : nnsclo,ikpt=   20  118 max resid (incl. the buffer)=  1.23231E-07
  prteigrs : nnsclo,ikpt=   20  119 max resid (incl. the buffer)=  4.01612E-07
  prteigrs : nnsclo,ikpt=   20  120 max resid (incl. the buffer)=  1.15005E-07
  prteigrs : nnsclo,ikpt=   20  121 max resid (incl. the buffer)=  2.22302E-09
  prteigrs : nnsclo,ikpt=   20  122 max resid (incl. the buffer)=  1.67500E-07
  prteigrs : nnsclo,ikpt=   20  123 max resid (incl. the buffer)=  9.03487E-10
  prteigrs : nnsclo,ikpt=   20  124 max resid (incl. the buffer)=  2.00691E-08
  prteigrs : nnsclo,ikpt=   20  125 max resid (incl. the buffer)=  2.10690E-08


 Compute ELF
--------------------------------------------------------------------------------

 Compute kinetic energy density

 Compute gradient of the electron density
 Electron Localization Function (ELF) [min:0;max:1]
      Maximum=    9.5036E-01  at reduced coord.    0.6250    0.1250    0.1250
      Minimum=    1.5955E-06  at reduced coord.    0.0000    0.0000    0.0000
   Integrated=    1.2351E+02

--------------------------------------------------------------------------------
 End of ELF section

--- !ResultsGS
iteration_state: {dtset: 2, }
comment   : Summary of ground state results
lattice_vectors:
- [  0.0000000,   5.2596748,   5.2596748, ]
- [  5.2596748,   0.0000000,   5.2596748, ]
- [  5.2596748,   5.2596748,   0.0000000, ]
lattice_lengths: [   7.43830,    7.43830,    7.43830, ]
lattice_angles: [ 60.000,  60.000,  60.000, ] # degrees, (23, 13, 12)
lattice_volume:   2.9100917E+02
convergence: {deltae:  0.000E+00, res2:  0.000E+00, residm:  9.992E-11, diffor:  0.000E+00, }
etotal    :  -8.46102707E+00
entropy   :   0.00000000E+00
fermie    :   1.30437871E-01
cartesian_stress_tensor: null
pressure_GPa: null
xred      :
- [  0.0000E+00,   0.0000E+00,   0.0000E+00, Si]
- [  2.5000E-01,   2.5000E-01,   2.5000E-01, Si]
cartesian_forces: null
force_length_stats: {min: null, max: null, mean: null, }
...

 Integrated electronic density in atomic spheres:
 ------------------------------------------------
 Atom  Sphere_radius  Integrated_density
    1        2.00000          1.67756824
    2        2.00000          1.67756824
================================================================================

 ----iterations are completed or convergence reached----

 Mean square residual over all n,k,spin=   36.341E-12; max=  99.921E-12
 reduced coordinates (array xred) for    2 atoms
       0.000000000000      0.000000000000      0.000000000000
       0.250000000000      0.250000000000      0.250000000000

 cartesian coordinates (angstrom) at end:
    1      0.00000000000000     0.00000000000000     0.00000000000000
    2      1.39165002107500     1.39165002107500     1.39165002107500
 length scales=  1.889726132886  1.889726132886  1.889726132886 bohr
              =  1.000000000000  1.000000000000  1.000000000000 angstroms
 prteigrs : about to open file abo_DS2_EIG
 Eigenvalues (hartree) for nkpt= 125  k points:
 kpt#   1, nband= 20, wtk=  0.00800, kpt=  0.1000  0.1000  0.1000 (reduced coord)
  -0.27991    0.09491    0.13044    0.13044    0.22313    0.24004    0.24004    0.27174
   0.40833    0.40833    0.43792    0.52708    0.56950    0.56950    0.71587    0.90549
   0.90549    0.90606    0.98103    0.98103
 prteigrs : prtvol=0 or 1, do not print more k-points.


================================================================================
== DATASET  3 ==================================================================
-   mpi_nproc: 1, omp_nthreads: -1 (-1 if OMP is not activated)


--- !DatasetInfo
iteration_state: {dtset: 3, }
dimensions: {natom: 2, nkpt: 198, mband: 20, nsppol: 1, nspinor: 1, nspden: 1, mpw: 532, }
cutoff_energies: {ecut:  11.0, pawecutdg:  -1.0, }
electrons: {nelect:   8.00000000E+00, charge:   0.00000000E+00, occopt:   1.00000000E+00, tsmear:   1.00000000E-02, }
meta: {optdriver: 0, ionmov: 0, optcell: 0, iscf: -2, paral_kgb: 0, }
...

 mkfilename : getwfk/=0, take file _WFK from output of DATASET   1.

 mkfilename : getden/=0, take file _DEN from output of DATASET   1.

 Exchange-correlation functional for the present dataset will be:
  GGA: Perdew-Burke-Ernzerhof functional - ixc=11
 Citation for XC functional:
  J.P.Perdew, K.Burke, M.Ernzerhof, PRL 77, 3865 (1996)

 Real(R)+Recip(G) space primitive vectors, cartesian coordinates (Bohr,Bohr^-1):
 R(1)=  0.0000000  5.2596748  5.2596748  G(1)= -0.0950629  0.0950629  0.0950629
 R(2)=  5.2596748  0.0000000  5.2596748  G(2)=  0.0950629 -0.0950629  0.0950629
 R(3)=  5.2596748  5.2596748  0.0000000  G(3)=  0.0950629  0.0950629 -0.0950629
 Unit cell volume ucvol=  2.9100917E+02 bohr^3
 Angles (23,13,12)=  6.00000000E+01  6.00000000E+01  6.00000000E+01 degrees

 getcut: wavevector=  0.0000  0.0000  0.0000  ngfft=  24  24  24
         ecut(hartree)=     11.025   => boxcut(ratio)=   2.15867
--------------------------------------------------------------------------------

-inwffil : will read wavefunctions from disk file abo_DS1_WFK

================================================================================
 prteigrs : about to open file abo_DS3_EIG
 Non-SCF case, kpt    1 (  0.00000  0.00000  0.00000), residuals and eigenvalues=
  2.94E-09  1.23E-09  3.65E-09  7.69E-09  6.78E-09  1.39E-09  3.43E-09  3.43E-09
  7.01E-09  1.45E-09  4.43E-09  1.09E-09  2.35E-09  8.21E-09  8.62E-09  2.82E-09
  6.04E-09  3.13E-09  5.95E-07  1.65E-06
 -2.8442E-01  1.3721E-01  1.3721E-01  1.3721E-01  2.2958E-01  2.3006E-01
  2.3006E-01  2.3006E-01  4.1924E-01  4.2075E-01  4.2075E-01  5.4195E-01
  5.4195E-01  5.4195E-01  6.8666E-01  9.5493E-01  9.5493E-01  9.5493E-01
  9.9361E-01  9.9361E-01
  prteigrs : nnsclo,ikpt=   20    1 max resid (incl. the buffer)=  1.65260E-06
 Non-SCF case, kpt    2 (  0.01786  0.00000  0.01786), residuals and eigenvalues=
  5.20E-09  5.06E-09  2.47E-09  6.00E-09  5.33E-09  2.70E-09  7.01E-09  1.61E-09
  8.17E-09  4.56E-09  1.57E-09  4.28E-09  7.61E-09  1.90E-09  1.62E-09  7.83E-09
  6.09E-09  7.16E-09  1.02E-06  7.06E-07
 -2.8423E-01  1.3554E-01  1.3640E-01  1.3640E-01  2.2958E-01  2.3110E-01
  2.3110E-01  2.3122E-01  4.1914E-01  4.2011E-01  4.2097E-01  5.4229E-01
  5.4229E-01  5.4309E-01  6.8808E-01  9.5133E-01  9.5133E-01  9.5518E-01
  9.9093E-01  9.9115E-01
  prteigrs : nnsclo,ikpt=   20    2 max resid (incl. the buffer)=  1.01774E-06
 Non-SCF case, kpt    3 (  0.03571  0.00000  0.03571), residuals and eigenvalues=
  8.97E-09  3.48E-09  1.50E-09  3.85E-09  5.52E-09  2.21E-09  8.10E-09  1.86E-09
  2.35E-09  2.04E-09  4.84E-09  5.70E-09  8.71E-09  2.88E-09  1.06E-09  9.52E-09
  8.04E-09  9.22E-09  1.40E-06  5.32E-07
 -2.8365E-01  1.3086E-01  1.3409E-01  1.3409E-01  2.2818E-01  2.3413E-01
  2.3413E-01  2.3578E-01  4.1457E-01  4.2162E-01  4.2267E-01  5.4332E-01
  5.4332E-01  5.4628E-01  6.9232E-01  9.4186E-01  9.4186E-01  9.5593E-01
  9.8416E-01  9.8418E-01
  prteigrs : nnsclo,ikpt=   20    3 max resid (incl. the buffer)=  1.40296E-06
 Non-SCF case, kpt    4 (  0.05357  0.00000  0.05357), residuals and eigenvalues=
  1.72E-09  2.79E-09  1.19E-09  2.65E-09  4.82E-09  2.15E-09  3.63E-09  2.61E-09
  3.70E-09  3.56E-09  5.25E-09  6.76E-09  8.88E-09  3.01E-09  8.21E-10  5.40E-09
  5.50E-09  8.57E-09  1.36E-07  7.64E-08
 -2.8269E-01  1.2391E-01  1.3054E-01  1.3054E-01  2.2594E-01  2.3887E-01
  2.3887E-01  2.4248E-01  4.0775E-01  4.2270E-01  4.2685E-01  5.4503E-01
  5.4503E-01  5.5098E-01  6.9927E-01  9.2880E-01  9.2880E-01  9.5721E-01
  9.7357E-01  9.7519E-01
  prteigrs : nnsclo,ikpt=   20    4 max resid (incl. the buffer)=  1.35605E-07
 Non-SCF case, kpt    5 (  0.07143  0.00000  0.07143), residuals and eigenvalues=
  3.74E-09  2.87E-09  2.61E-09  7.99E-09  2.75E-09  2.96E-09  9.12E-09  1.93E-09
  2.29E-09  6.59E-09  4.15E-09  6.48E-09  8.53E-09  5.28E-09  6.23E-09  3.53E-09
  2.97E-09  6.37E-09  8.82E-09  6.51E-09
 -2.8135E-01  1.1540E-01  1.2608E-01  1.2608E-01  2.2298E-01  2.4500E-01
  2.4500E-01  2.5044E-01  3.9952E-01  4.2421E-01  4.3252E-01  5.4742E-01
  5.4742E-01  5.5662E-01  7.0878E-01  9.1377E-01  9.1377E-01  9.5901E-01
  9.6039E-01  9.6476E-01
 Non-SCF case, kpt    6 (  0.08929  0.00000  0.08929), residuals and eigenvalues=
  6.49E-09  3.14E-09  4.09E-09  7.19E-09  3.05E-09  3.77E-09  9.53E-09  1.94E-09
  9.07E-09  6.27E-09  4.60E-09  6.08E-09  7.96E-09  5.45E-09  6.11E-09  6.02E-09
  7.83E-09  4.05E-09  5.53E-09  5.87E-09
 -2.7962E-01  1.0588E-01  1.2100E-01  1.2100E-01  2.1944E-01  2.5221E-01
  2.5221E-01  2.5891E-01  3.9073E-01  4.2616E-01  4.3953E-01  5.5048E-01
  5.5048E-01  5.6278E-01  7.2060E-01  8.9766E-01  8.9766E-01  9.4547E-01
  9.5381E-01  9.6137E-01
 Non-SCF case, kpt    7 (  0.10714  0.00000  0.10714), residuals and eigenvalues=
  2.10E-09  3.65E-09  9.71E-10  2.00E-09  8.82E-09  1.45E-09  2.41E-09  4.33E-09
  5.82E-09  7.98E-09  2.86E-09  5.39E-09  6.41E-09  5.28E-09  1.01E-09  3.58E-09
  6.74E-09  8.87E-09  1.56E-08  3.92E-08
 -2.7751E-01  9.5715E-02  1.1555E-01  1.1555E-01  2.1547E-01  2.6028E-01
  2.6028E-01  2.6715E-01  3.8239E-01  4.2854E-01  4.4772E-01  5.5425E-01
  5.5425E-01  5.6930E-01  7.3445E-01  8.8119E-01  8.8119E-01  9.2943E-01
  9.4283E-01  9.6433E-01
  prteigrs : nnsclo,ikpt=   20    7 max resid (incl. the buffer)=  3.91775E-08
 Non-SCF case, kpt    8 (  0.12500  0.00000  0.12500), residuals and eigenvalues=
  2.04E-09  2.99E-09  1.13E-09  3.42E-09  7.49E-09  1.51E-09  9.55E-09  4.11E-09
  4.70E-09  8.03E-09  2.84E-09  4.84E-09  7.43E-09  5.22E-09  1.73E-09  3.80E-09
  8.63E-09  9.69E-09  8.92E-08  6.14E-07
 -2.7502E-01  8.5123E-02  1.0991E-01  1.0991E-01  2.1120E-01  2.6899E-01
  2.6899E-01  2.7429E-01  3.7518E-01  4.3135E-01  4.5696E-01  5.5863E-01
  5.5863E-01  5.7592E-01  7.5002E-01  8.6422E-01  8.6422E-01  9.1267E-01
  9.3090E-01  9.6792E-01
  prteigrs : nnsclo,ikpt=   20    8 max resid (incl. the buffer)=  6.14237E-07
 Non-SCF case, kpt    9 (  0.14286  0.00000  0.14286), residuals and eigenvalues=
  1.45E-09  5.14E-09  7.65E-10  1.13E-09  9.66E-09  2.50E-09  3.84E-09  9.15E-09
  2.81E-09  5.34E-09  7.37E-09  3.01E-09  7.49E-09  2.02E-09  1.94E-09  5.36E-09
  4.20E-09  5.92E-09  1.36E-08  7.99E-08
 -2.7215E-01  7.4259E-02  1.0422E-01  1.0422E-01  2.0675E-01  2.7822E-01
  2.7822E-01  2.7934E-01  3.7039E-01  4.3462E-01  4.6709E-01  5.6369E-01
  5.6369E-01  5.8275E-01  7.6700E-01  8.4733E-01  8.4733E-01  8.9554E-01
  9.1873E-01  9.7246E-01
  prteigrs : nnsclo,ikpt=   20    9 max resid (incl. the buffer)=  7.99214E-08
 Non-SCF case, kpt   10 (  0.16071  0.00000  0.16071), residuals and eigenvalues=
  1.37E-09  4.69E-09  9.48E-10  1.37E-09  9.17E-09  7.73E-09  2.34E-09  3.51E-09
  2.92E-09  5.31E-09  8.43E-09  2.68E-09  7.99E-09  2.45E-09  4.20E-09  3.52E-09
  6.81E-09  2.30E-09  4.84E-09  1.16E-07
 -2.6891E-01  6.3215E-02  9.8537E-02  9.8537E-02  2.0222E-01  2.8124E-01
  2.8786E-01  2.8786E-01  3.6912E-01  4.3829E-01  4.7799E-01  5.6931E-01
  5.6931E-01  5.8976E-01  7.8503E-01  8.3040E-01  8.3040E-01  8.7815E-01
  9.0641E-01  9.7754E-01
  prteigrs : nnsclo,ikpt=   20   10 max resid (incl. the buffer)=  1.15625E-07
 Non-SCF case, kpt   11 (  0.17857  0.00000  0.17857), residuals and eigenvalues=
  1.36E-09  4.34E-09  1.18E-09  1.84E-09  8.43E-09  9.13E-09  2.22E-09  3.17E-09
  3.31E-09  4.67E-09  4.66E-09  3.22E-09  5.87E-09  2.96E-09  9.70E-09  6.88E-09
  7.41E-09  4.58E-09  8.69E-09  1.96E-07
 -2.6529E-01  5.2057E-02  9.2964E-02  9.2964E-02  1.9771E-01  2.7960E-01
  2.9783E-01  2.9783E-01  3.7184E-01  4.4239E-01  4.8954E-01  5.7549E-01
  5.7549E-01  5.9705E-01  8.0378E-01  8.1371E-01  8.1371E-01  8.6070E-01
  8.9403E-01  9.8353E-01
  prteigrs : nnsclo,ikpt=   20   11 max resid (incl. the buffer)=  1.96207E-07
 Non-SCF case, kpt   12 (  0.19643  0.00000  0.19643), residuals and eigenvalues=
  1.83E-09  1.98E-09  2.00E-09  6.76E-09  7.96E-09  8.38E-09  1.40E-09  3.75E-09
  3.01E-09  7.16E-09  2.85E-09  1.86E-09  4.75E-09  2.73E-09  7.39E-09  8.98E-09
  8.57E-09  4.35E-09  1.99E-08  6.41E-05
 -2.6131E-01  4.0827E-02  8.7546E-02  8.7546E-02  1.9328E-01  2.7490E-01
  3.0806E-01  3.0806E-01  3.7807E-01  4.4693E-01  5.0161E-01  5.8213E-01
  5.8213E-01  6.0466E-01  7.9726E-01  7.9726E-01  8.2293E-01  8.4328E-01
  8.8159E-01  9.9059E-01
  prteigrs : nnsclo,ikpt=   20   12 max resid (incl. the buffer)=  6.41482E-05
 Non-SCF case, kpt   13 (  0.21429  0.00000  0.21429), residuals and eigenvalues=
  3.37E-09  2.67E-09  1.78E-09  9.25E-09  1.52E-09  5.83E-09  1.67E-09  8.70E-09
  6.30E-09  6.75E-09  7.11E-09  1.35E-09  4.81E-09  4.83E-09  2.87E-09  7.34E-09
  6.55E-09  7.94E-09  7.34E-09  7.83E-05
 -2.5696E-01  2.9561E-02  8.2328E-02  8.2328E-02  1.8902E-01  2.6809E-01
  3.1854E-01  3.1854E-01  3.8688E-01  4.5189E-01  5.1411E-01  5.8918E-01
  5.8918E-01  6.1250E-01  7.8146E-01  7.8146E-01  8.2598E-01  8.4203E-01
  8.6936E-01  9.9894E-01
  prteigrs : nnsclo,ikpt=   20   13 max resid (incl. the buffer)=  7.82616E-05
 Non-SCF case, kpt   14 (  0.23214  0.00000  0.23214), residuals and eigenvalues=
  1.39E-09  3.11E-09  1.39E-09  3.52E-09  6.22E-09  5.73E-09  1.39E-09  6.63E-09
  3.72E-09  4.60E-09  8.27E-09  2.35E-09  5.48E-09  1.25E-09  4.36E-09  5.05E-09
  8.16E-09  2.64E-09  3.25E-09  1.49E-05
 -2.5224E-01  1.8287E-02  7.7347E-02  7.7347E-02  1.8497E-01  2.6020E-01
  3.2926E-01  3.2926E-01  3.9748E-01  4.5746E-01  5.2690E-01  5.9655E-01
  5.9655E-01  6.2099E-01  7.6653E-01  7.6653E-01  8.0914E-01  8.5744E-01
  8.6097E-01  1.0091E+00
  prteigrs : nnsclo,ikpt=   20   14 max resid (incl. the buffer)=  1.48750E-05
 Non-SCF case, kpt   15 (  0.25000  0.00000  0.25000), residuals and eigenvalues=
  5.56E-09  8.39E-09  4.24E-09  9.52E-09  2.25E-09  4.69E-09  1.62E-09  4.34E-09
  9.26E-09  1.80E-09  3.93E-09  1.58E-09  4.67E-09  8.69E-09  1.31E-09  2.23E-09
  3.75E-09  3.24E-09  1.65E-08  8.18E-05
 -2.4716E-01  7.0127E-03  7.2620E-02  7.2620E-02  1.8118E-01  2.5178E-01
  3.4014E-01  3.4014E-01  4.0912E-01  4.6328E-01  5.3983E-01  6.0398E-01
  6.0398E-01  6.2998E-01  7.5262E-01  7.5262E-01  7.9224E-01  8.4595E-01
  8.7916E-01  1.0208E+00
  prteigrs : nnsclo,ikpt=   20   15 max resid (incl. the buffer)=  8.17880E-05
 Non-SCF case, kpt   16 (  0.26786  0.00000  0.26786), residuals and eigenvalues=
  5.30E-09  2.34E-09  4.44E-09  8.61E-09  1.73E-09  3.77E-09  1.63E-09  3.61E-09
  9.52E-09  1.79E-09  6.36E-09  2.10E-09  2.61E-09  7.12E-09  8.82E-10  1.84E-09
  2.08E-09  6.12E-09  5.30E-08  1.39E-04
 -2.4173E-01 -4.2419E-03  6.8154E-02  6.8154E-02  1.7766E-01  2.4322E-01
  3.5115E-01  3.5115E-01  4.2146E-01  4.6953E-01  5.5275E-01  6.1078E-01
  6.1078E-01  6.3951E-01  7.3995E-01  7.3995E-01  7.7554E-01  8.3478E-01
  8.9622E-01  1.0349E+00
  prteigrs : nnsclo,ikpt=   20   16 max resid (incl. the buffer)=  1.39485E-04
 Non-SCF case, kpt   17 (  0.28571  0.00000  0.28571), residuals and eigenvalues=
  2.63E-09  3.47E-09  1.41E-09  9.26E-09  2.62E-09  5.14E-09  2.74E-09  8.11E-09
  4.21E-09  7.18E-09  3.86E-09  1.00E-09  4.63E-09  7.14E-09  8.31E-10  2.05E-09
  4.10E-09  4.74E-09  4.72E-08  2.35E-04
 -2.3595E-01 -1.5462E-02  6.3976E-02  6.3976E-02  1.7446E-01  2.3475E-01
  3.6225E-01  3.6225E-01  4.3423E-01  4.7620E-01  5.6544E-01  6.1640E-01
  6.1640E-01  6.4960E-01  7.2942E-01  7.2942E-01  7.5913E-01  8.2427E-01
  9.1193E-01  1.0495E+00
  prteigrs : nnsclo,ikpt=   20   17 max resid (incl. the buffer)=  2.34890E-04
 Non-SCF case, kpt   18 (  0.30357  0.00000  0.30357), residuals and eigenvalues=
  2.03E-09  6.49E-09  4.70E-09  7.94E-09  4.84E-09  2.41E-09  1.75E-09  6.89E-09
  5.45E-09  7.29E-09  9.16E-09  2.63E-09  5.04E-09  3.58E-09  5.96E-09  6.81E-09
  1.71E-09  3.05E-09  1.68E-07  4.09E-05
 -2.2983E-01 -2.6630E-02  6.0099E-02  6.0099E-02  1.7161E-01  2.2657E-01
  3.7350E-01  3.7350E-01  4.4727E-01  4.8330E-01  5.7763E-01  6.1988E-01
  6.1988E-01  6.6032E-01  7.2207E-01  7.2207E-01  7.4302E-01  8.1474E-01
  9.2618E-01  1.0347E+00
  prteigrs : nnsclo,ikpt=   20   18 max resid (incl. the buffer)=  4.09185E-05
 Non-SCF case, kpt   19 (  0.32143  0.00000  0.32143), residuals and eigenvalues=
  2.10E-09  3.41E-09  4.87E-09  7.40E-09  4.20E-09  1.76E-09  9.75E-10  5.98E-09
  5.39E-09  7.32E-09  5.68E-09  2.33E-09  4.94E-09  3.85E-09  4.59E-09  5.80E-09
  1.15E-09  3.85E-09  8.75E-07  1.17E-04
 -2.2337E-01 -3.7733E-02  5.6532E-02  5.6532E-02  1.6913E-01  2.1875E-01
  3.8486E-01  3.8486E-01  4.6045E-01  4.9082E-01  5.8898E-01  6.2013E-01
  6.2013E-01  6.7165E-01  7.1896E-01  7.1896E-01  7.2722E-01  8.0649E-01
  9.3896E-01  1.0205E+00
  prteigrs : nnsclo,ikpt=   20   19 max resid (incl. the buffer)=  1.16552E-04
 Non-SCF case, kpt   20 (  0.33929  0.00000  0.33929), residuals and eigenvalues=
  4.72E-09  2.21E-09  8.25E-10  1.60E-09  9.64E-10  4.12E-09  3.14E-09  4.76E-09
  9.67E-09  6.91E-09  3.00E-09  7.51E-09  9.41E-09  4.46E-09  1.59E-09  8.96E-09
  5.50E-09  9.64E-09  7.63E-05  1.54E-03
 -2.1657E-01 -4.8754E-02  5.3289E-02  5.3289E-02  1.6702E-01  2.1137E-01
  3.9631E-01  3.9631E-01  4.7370E-01  4.9877E-01  5.9904E-01  6.1685E-01
  6.1685E-01  6.8361E-01  7.1195E-01  7.2064E-01  7.2064E-01  7.9980E-01
  9.5073E-01  1.0180E+00
  prteigrs : nnsclo,ikpt=   20   20 max resid (incl. the buffer)=  1.53943E-03
 Non-SCF case, kpt   21 (  0.35714  0.00000  0.35714), residuals and eigenvalues=
  3.85E-09  1.52E-09  1.17E-09  1.71E-09  7.24E-09  3.18E-09  1.55E-09  4.34E-09
  4.07E-09  8.11E-09  9.00E-09  5.62E-09  7.27E-09  5.23E-09  7.90E-09  4.61E-09
  5.90E-09  2.99E-09  5.13E-04  4.70E-04
 -2.0945E-01 -5.9684E-02  5.0367E-02  5.0367E-02  1.6534E-01  2.0447E-01
  4.0783E-01  4.0783E-01  4.8691E-01  5.0714E-01  6.0729E-01  6.0996E-01
  6.0996E-01  6.9620E-01  6.9682E-01  7.2667E-01  7.2667E-01  7.9538E-01
  9.6226E-01  1.0072E+00
  prteigrs : nnsclo,ikpt=   20   21 max resid (incl. the buffer)=  5.12572E-04
 Non-SCF case, kpt   22 (  0.37500  0.00000  0.37500), residuals and eigenvalues=
  4.16E-09  2.87E-09  8.95E-10  2.72E-09  3.03E-09  6.63E-09  2.30E-09  9.24E-09
  7.39E-09  3.21E-09  3.22E-09  3.91E-09  4.41E-09  5.44E-09  9.50E-09  1.54E-09
  1.70E-09  4.99E-09  6.38E-05  2.75E-04
 -2.0201E-01 -7.0503E-02  4.7776E-02  4.7776E-02  1.6410E-01  1.9810E-01
  4.1939E-01  4.1939E-01  5.0003E-01  5.1594E-01  6.0070E-01  6.0070E-01
  6.1320E-01  6.8205E-01  7.0958E-01  7.3609E-01  7.3609E-01  7.9369E-01
  9.6857E-01  9.7044E-01
  prteigrs : nnsclo,ikpt=   20   22 max resid (incl. the buffer)=  2.75170E-04
 Non-SCF case, kpt   23 (  0.39286  0.00000  0.39286), residuals and eigenvalues=
  4.19E-09  3.63E-09  2.98E-09  6.35E-09  4.82E-09  3.04E-09  2.01E-09  6.38E-09
  3.11E-09  7.90E-09  1.92E-09  8.88E-09  9.37E-09  1.06E-09  2.31E-09  1.89E-09
  4.67E-09  6.39E-09  1.30E-03  4.24E-05
 -1.9427E-01 -8.1196E-02  4.5523E-02  4.5523E-02  1.6329E-01  1.9226E-01
  4.3099E-01  4.3099E-01  5.1300E-01  5.2517E-01  5.9006E-01  5.9006E-01
  6.1635E-01  6.6765E-01  7.2350E-01  7.4794E-01  7.4794E-01  7.9478E-01
  9.5386E-01  9.6861E-01
  prteigrs : nnsclo,ikpt=   20   23 max resid (incl. the buffer)=  1.30000E-03
 Non-SCF case, kpt   24 (  0.41071  0.00000  0.41071), residuals and eigenvalues=
  7.72E-09  6.01E-09  6.95E-10  8.47E-09  6.30E-09  7.70E-10  3.95E-09  6.09E-09
  2.79E-09  4.03E-09  5.58E-09  8.20E-09  6.62E-09  3.40E-09  5.24E-09  7.80E-09
  9.90E-09  3.16E-09  3.10E-04  1.37E-04
 -1.8622E-01 -9.1749E-02  4.3609E-02  4.3609E-02  1.6294E-01  1.8693E-01
  4.4250E-01  4.4250E-01  5.2576E-01  5.3480E-01  5.7869E-01  5.7869E-01
  6.1657E-01  6.5361E-01  7.3780E-01  7.6156E-01  7.6156E-01  7.9871E-01
  9.3355E-01  9.4761E-01
  prteigrs : nnsclo,ikpt=   20   24 max resid (incl. the buffer)=  3.09858E-04
 Non-SCF case, kpt   25 (  0.42857  0.00000  0.42857), residuals and eigenvalues=
  8.10E-09  4.84E-09  3.77E-09  4.20E-09  6.15E-09  3.51E-09  1.66E-09  4.52E-09
  4.99E-09  5.06E-09  6.26E-09  8.64E-09  5.84E-09  5.72E-09  3.49E-09  3.78E-09
  4.16E-09  7.83E-09  3.22E-04  5.00E-06
 -1.7789E-01 -1.0215E-01  4.2040E-02  4.2040E-02  1.6305E-01  1.8214E-01
  4.5383E-01  4.5383E-01  5.3826E-01  5.4485E-01  5.6714E-01  5.6714E-01
  6.1400E-01  6.3996E-01  7.5253E-01  7.7652E-01  7.7652E-01  8.0490E-01
  9.1835E-01  9.2668E-01
  prteigrs : nnsclo,ikpt=   20   25 max resid (incl. the buffer)=  3.22215E-04
 Non-SCF case, kpt   26 (  0.44643  0.00000  0.44643), residuals and eigenvalues=
  1.54E-09  7.09E-09  1.99E-09  5.33E-09  4.28E-09  1.64E-09  1.75E-09  7.76E-09
  1.90E-09  1.38E-09  2.62E-09  7.42E-09  6.68E-09  6.99E-09  6.26E-09  4.17E-09
  4.09E-09  9.74E-09  6.81E-05  3.57E-08
 -1.6927E-01 -1.1238E-01  4.0817E-02  4.0817E-02  1.6362E-01  1.7790E-01
  4.6466E-01  4.6466E-01  5.5042E-01  5.5525E-01  5.5584E-01  5.5584E-01
  6.0899E-01  6.2670E-01  7.6748E-01  7.9250E-01  7.9250E-01  8.1185E-01
  9.0080E-01  9.0619E-01
  prteigrs : nnsclo,ikpt=   20   26 max resid (incl. the buffer)=  6.80899E-05
 Non-SCF case, kpt   27 (  0.46429  0.00000  0.46429), residuals and eigenvalues=
  1.71E-09  4.87E-09  3.18E-09  5.00E-09  5.02E-09  1.04E-09  1.74E-09  4.24E-09
  3.97E-09  9.10E-09  4.53E-09  1.53E-09  5.17E-09  4.09E-09  7.24E-09  5.05E-09
  3.91E-09  6.84E-09  5.37E-07  9.20E-06
 -1.6039E-01 -1.2241E-01  3.9941E-02  3.9941E-02  1.6470E-01  1.7420E-01
  4.7460E-01  4.7460E-01  5.4544E-01  5.4544E-01  5.6217E-01  5.6612E-01
  6.0203E-01  6.1368E-01  7.8242E-01  8.0917E-01  8.0917E-01  8.1712E-01
  8.8642E-01  8.8908E-01
  prteigrs : nnsclo,ikpt=   20   27 max resid (incl. the buffer)=  9.19841E-06
 Non-SCF case, kpt   28 (  0.48214  0.00000  0.48214), residuals and eigenvalues=
  3.10E-09  2.00E-09  6.33E-09  9.38E-09  3.55E-09  4.23E-10  4.55E-09  7.99E-09
  1.48E-09  8.93E-09  4.58E-09  8.68E-09  3.36E-09  6.58E-09  9.90E-09  5.80E-09
  9.04E-09  9.20E-09  5.41E-08  6.18E-05
 -1.5124E-01 -1.3224E-01  3.9416E-02  3.9416E-02  1.6630E-01  1.7104E-01
  4.8233E-01  4.8233E-01  5.3757E-01  5.3757E-01  5.7338E-01  5.7755E-01
  5.9355E-01  6.0134E-01  7.9677E-01  8.1673E-01  8.2606E-01  8.2606E-01
  8.6775E-01  8.6802E-01
  prteigrs : nnsclo,ikpt=   20   28 max resid (incl. the buffer)=  6.18119E-05
 Non-SCF case, kpt   29 (  0.50000  0.00000  0.50000), residuals and eigenvalues=
  3.74E-09  5.52E-09  1.78E-09  5.02E-09  1.84E-09  3.79E-09  1.41E-09  3.21E-09
  3.15E-09  4.22E-09  4.13E-09  3.81E-09  2.23E-09  5.83E-09  6.15E-09  8.59E-09
  6.88E-09  8.00E-09  1.00E-08  3.66E-08
 -1.4185E-01 -1.4185E-01  3.9243E-02  3.9243E-02  1.6843E-01  1.6843E-01
  4.8549E-01  4.8549E-01  5.3461E-01  5.3461E-01  5.8391E-01  5.8391E-01
  5.8929E-01  5.8929E-01  8.0916E-01  8.0916E-01  8.3780E-01  8.3780E-01
  8.5559E-01  8.5559E-01
  prteigrs : nnsclo,ikpt=   20   29 max resid (incl. the buffer)=  3.65696E-08
 Non-SCF case, kpt   30 (  0.50000  0.01786  0.51786), residuals and eigenvalues=
  2.15E-09  3.56E-09  1.65E-09  6.63E-09  1.05E-09  1.57E-09  2.10E-09  4.66E-09
  9.02E-10  2.87E-09  1.65E-09  8.18E-09  2.47E-09  5.19E-09  6.09E-09  9.08E-09
  6.61E-09  8.58E-09  7.16E-08  6.93E-08
 -1.4181E-01 -1.4181E-01  3.8696E-02  3.8696E-02  1.6946E-01  1.6946E-01
  4.8392E-01  4.8392E-01  5.3117E-01  5.3117E-01  5.8579E-01  5.8579E-01
  5.9222E-01  5.9222E-01  8.0598E-01  8.0598E-01  8.3732E-01  8.3732E-01
  8.5807E-01  8.5807E-01
  prteigrs : nnsclo,ikpt=   20   30 max resid (incl. the buffer)=  7.15996E-08
 Non-SCF case, kpt   31 (  0.50000  0.03571  0.53571), residuals and eigenvalues=
  1.90E-09  4.32E-09  3.98E-09  6.83E-09  1.89E-09  3.14E-09  1.12E-09  3.73E-09
  2.04E-09  9.69E-09  2.38E-09  5.63E-09  1.33E-09  5.96E-09  4.06E-09  3.46E-09
  4.91E-09  8.89E-09  5.39E-07  1.71E-06
 -1.4163E-01 -1.4163E-01  3.7122E-02  3.7122E-02  1.7254E-01  1.7254E-01
  4.7896E-01  4.7896E-01  5.2476E-01  5.2476E-01  5.8696E-01  5.8696E-01
  6.0314E-01  6.0314E-01  7.9880E-01  7.9880E-01  8.3517E-01  8.3517E-01
  8.6505E-01  8.6505E-01
  prteigrs : nnsclo,ikpt=   20   31 max resid (incl. the buffer)=  1.70608E-06
 Non-SCF case, kpt   32 (  0.50000  0.05357  0.55357), residuals and eigenvalues=
  2.03E-09  7.76E-09  2.42E-09  3.40E-09  1.17E-09  2.47E-09  1.33E-09  4.18E-09
  6.74E-09  8.19E-09  1.36E-09  3.88E-09  2.11E-09  6.86E-09  3.17E-09  3.74E-09
  6.87E-09  6.43E-09  2.48E-07  3.21E-06
 -1.4136E-01 -1.4136E-01  3.4688E-02  3.4688E-02  1.7747E-01  1.7747E-01
  4.7023E-01  4.7023E-01  5.1898E-01  5.1898E-01  5.8760E-01  5.8760E-01
  6.1783E-01  6.1783E-01  7.9008E-01  7.9008E-01  8.3125E-01  8.3125E-01
  8.7429E-01  8.7430E-01
  prteigrs : nnsclo,ikpt=   20   32 max resid (incl. the buffer)=  3.20564E-06
 Non-SCF case, kpt   33 (  0.50000  0.07143  0.57143), residuals and eigenvalues=
  2.13E-09  9.72E-09  2.02E-09  3.37E-09  1.65E-09  2.72E-09  1.64E-09  3.32E-09
  4.51E-09  7.82E-09  2.40E-09  6.49E-09  3.99E-09  7.04E-09  4.90E-09  9.79E-09
  6.13E-09  5.91E-09  1.19E-06  6.04E-06
 -1.4100E-01 -1.4100E-01  3.1620E-02  3.1620E-02  1.8405E-01  1.8405E-01
  4.5826E-01  4.5826E-01  5.1525E-01  5.1525E-01  5.8829E-01  5.8829E-01
  6.3403E-01  6.3403E-01  7.8116E-01  7.8116E-01  8.2657E-01  8.2657E-01
  8.8406E-01  8.8406E-01
  prteigrs : nnsclo,ikpt=   20   33 max resid (incl. the buffer)=  6.04142E-06
 Non-SCF case, kpt   34 (  0.50000  0.08929  0.58929), residuals and eigenvalues=
  1.16E-09  2.68E-09  1.60E-09  2.44E-09  1.53E-09  3.73E-09  1.57E-09  3.19E-09
  5.10E-09  8.55E-09  2.45E-09  4.09E-09  1.38E-09  8.99E-09  4.73E-09  9.33E-09
  9.51E-09  3.63E-09  3.54E-06  1.22E-05
 -1.4055E-01 -1.4055E-01  2.8161E-02  2.8161E-02  1.9204E-01  1.9204E-01
  4.4420E-01  4.4420E-01  5.1306E-01  5.1306E-01  5.8909E-01  5.8909E-01
  6.5094E-01  6.5094E-01  7.7258E-01  7.7258E-01  8.2171E-01  8.2171E-01
  8.9311E-01  8.9312E-01
  prteigrs : nnsclo,ikpt=   20   34 max resid (incl. the buffer)=  1.22075E-05
 Non-SCF case, kpt   35 (  0.50000  0.10714  0.60714), residuals and eigenvalues=
  2.01E-09  4.08E-09  1.10E-09  2.55E-09  1.90E-09  4.08E-09  4.19E-09  7.09E-09
  2.07E-09  3.01E-09  5.32E-09  5.93E-09  1.78E-09  3.32E-09  5.22E-09  5.64E-09
  4.96E-09  5.31E-09  6.16E-06  1.84E-05
 -1.4005E-01 -1.4005E-01  2.4534E-02  2.4534E-02  2.0123E-01  2.0123E-01
  4.2900E-01  4.2900E-01  5.1179E-01  5.1179E-01  5.8994E-01  5.8994E-01
  6.6806E-01  6.6806E-01  7.6465E-01  7.6465E-01  8.1700E-01  8.1700E-01
  9.0034E-01  9.0039E-01
  prteigrs : nnsclo,ikpt=   20   35 max resid (incl. the buffer)=  1.84202E-05
 Non-SCF case, kpt   36 (  0.50000  0.12500  0.62500), residuals and eigenvalues=
  3.87E-09  9.01E-09  7.73E-10  1.59E-09  2.01E-09  4.60E-09  2.78E-09  8.54E-09
  2.21E-09  2.64E-09  2.91E-09  7.84E-09  2.53E-09  4.43E-09  4.36E-09  6.03E-09
  7.67E-09  9.78E-09  4.41E-06  1.94E-05
 -1.3951E-01 -1.3951E-01  2.0931E-02  2.0931E-02  2.1143E-01  2.1143E-01
  4.1323E-01  4.1323E-01  5.1106E-01  5.1106E-01  5.9091E-01  5.9091E-01
  6.8514E-01  6.8514E-01  7.5771E-01  7.5771E-01  8.1262E-01  8.1262E-01
  9.0431E-01  9.0435E-01
  prteigrs : nnsclo,ikpt=   20   36 max resid (incl. the buffer)=  1.94170E-05
 Non-SCF case, kpt   37 (  0.50000  0.14286  0.64286), residuals and eigenvalues=
  2.72E-09  6.50E-09  1.53E-09  7.67E-09  2.44E-09  7.01E-09  3.09E-09  8.38E-09
  3.84E-09  9.07E-09  1.30E-09  4.39E-09  4.53E-09  5.04E-09  4.16E-09  7.54E-09
  8.08E-09  6.71E-09  7.69E-06  1.47E-04
 -1.3897E-01 -1.3897E-01  1.7513E-02  1.7513E-02  2.2252E-01  2.2252E-01
  3.9722E-01  3.9722E-01  5.1061E-01  5.1061E-01  5.9196E-01  5.9196E-01
  7.0149E-01  7.0149E-01  7.5222E-01  7.5222E-01  8.0869E-01  8.0869E-01
  9.0306E-01  9.0328E-01
  prteigrs : nnsclo,ikpt=   20   37 max resid (incl. the buffer)=  1.47074E-04
 Non-SCF case, kpt   38 (  0.50000  0.16071  0.66071), residuals and eigenvalues=
  2.19E-09  4.17E-09  3.90E-09  8.11E-09  1.82E-09  4.37E-09  2.73E-09  6.67E-09
  2.67E-09  3.81E-09  4.59E-09  6.74E-09  2.84E-09  5.92E-09  3.45E-09  4.75E-09
  3.36E-09  3.30E-09  1.07E-06  8.05E-05
 -1.3844E-01 -1.3844E-01  1.4413E-02  1.4413E-02  2.3433E-01  2.3433E-01
  3.8117E-01  3.8117E-01  5.1035E-01  5.1035E-01  5.9289E-01  5.9289E-01
  7.1586E-01  7.1586E-01  7.4954E-01  7.4954E-01  8.0525E-01  8.0525E-01
  8.9599E-01  8.9610E-01
  prteigrs : nnsclo,ikpt=   20   38 max resid (incl. the buffer)=  8.05317E-05
 Non-SCF case, kpt   39 (  0.50000  0.17857  0.67857), residuals and eigenvalues=
  2.08E-09  4.58E-09  5.29E-09  7.34E-09  1.80E-09  6.73E-09  2.05E-09  5.49E-09
  3.06E-09  4.25E-09  5.31E-09  8.28E-09  3.59E-09  7.56E-09  4.55E-09  6.11E-09
  5.95E-09  7.09E-09  2.43E-07  2.98E-06
 -1.3796E-01 -1.3796E-01  1.1738E-02  1.1738E-02  2.4678E-01  2.4678E-01
  3.6528E-01  3.6528E-01  5.1022E-01  5.1022E-01  5.9381E-01  5.9381E-01
  7.2467E-01  7.2467E-01  7.5329E-01  7.5329E-01  8.0241E-01  8.0241E-01
  8.8477E-01  8.8477E-01
  prteigrs : nnsclo,ikpt=   20   39 max resid (incl. the buffer)=  2.98133E-06
 Non-SCF case, kpt   40 (  0.50000  0.19643  0.69643), residuals and eigenvalues=
  1.97E-09  4.43E-09  1.13E-09  5.11E-09  2.42E-09  9.98E-09  1.64E-09  5.70E-09
  3.94E-09  5.17E-09  4.47E-09  9.86E-09  6.21E-09  9.02E-09  3.21E-09  7.33E-09
  3.78E-09  4.30E-09  6.34E-08  4.27E-07
 -1.3755E-01 -1.3755E-01  9.5704E-03  9.5704E-03  2.5975E-01  2.5975E-01
  3.4962E-01  3.4962E-01  5.1016E-01  5.1016E-01  5.9459E-01  5.9459E-01
  7.2641E-01  7.2641E-01  7.6474E-01  7.6474E-01  8.0018E-01  8.0018E-01
  8.7130E-01  8.7130E-01
  prteigrs : nnsclo,ikpt=   20   40 max resid (incl. the buffer)=  4.27090E-07
 Non-SCF case, kpt   41 (  0.50000  0.21429  0.71429), residuals and eigenvalues=
  8.55E-10  2.52E-09  8.79E-10  3.29E-09  1.87E-09  5.03E-09  3.19E-09  5.04E-09
  1.13E-09  2.86E-09  2.41E-09  5.33E-09  8.52E-09  3.49E-09  2.47E-09  9.12E-09
  2.70E-09  8.17E-09  2.46E-09  4.44E-08
 -1.3724E-01 -1.3724E-01  7.9757E-03  7.9757E-03  2.7306E-01  2.7306E-01
  3.3437E-01  3.3437E-01  5.1013E-01  5.1013E-01  5.9520E-01  5.9520E-01
  7.2549E-01  7.2549E-01  7.7898E-01  7.7898E-01  7.9862E-01  7.9862E-01
  8.5702E-01  8.5702E-01
  prteigrs : nnsclo,ikpt=   20   41 max resid (incl. the buffer)=  4.43666E-08
 Non-SCF case, kpt   42 (  0.50000  0.23214  0.73214), residuals and eigenvalues=
  2.42E-09  7.15E-09  5.15E-10  3.72E-09  1.57E-09  9.53E-09  1.60E-09  3.57E-09
  1.84E-09  4.12E-09  2.66E-09  9.20E-09  4.67E-09  7.30E-09  7.45E-09  7.91E-09
  1.34E-09  2.78E-09  2.09E-08  1.18E-07
 -1.3705E-01 -1.3705E-01  7.0006E-03  7.0006E-03  2.8619E-01  2.8619E-01
  3.2006E-01  3.2006E-01  5.1009E-01  5.1009E-01  5.9546E-01  5.9546E-01
  7.2450E-01  7.2450E-01  7.9185E-01  7.9185E-01  7.9796E-01  7.9796E-01
  8.4388E-01  8.4388E-01
  prteigrs : nnsclo,ikpt=   20   42 max resid (incl. the buffer)=  1.17771E-07
 Non-SCF case, kpt   43 (  0.50000  0.25000  0.75000), residuals and eigenvalues=
  1.11E-09  2.92E-09  5.43E-10  2.76E-09  1.83E-09  3.30E-09  1.41E-09  2.09E-09
  2.23E-09  3.81E-09  4.28E-09  9.77E-09  3.49E-09  8.63E-09  2.56E-09  5.37E-09
  1.56E-09  6.14E-09  9.24E-09  1.96E-09
 -1.3698E-01 -1.3698E-01  6.6725E-03  6.6725E-03  2.9467E-01  2.9467E-01
  3.1119E-01  3.1119E-01  5.1009E-01  5.1009E-01  5.9559E-01  5.9559E-01
  7.2412E-01  7.2412E-01  7.9600E-01  7.9600E-01  7.9998E-01  7.9998E-01
  8.3752E-01  8.3752E-01
 Non-SCF case, kpt   44 (  0.48750  0.26250  0.75000), residuals and eigenvalues=
  8.45E-09  6.08E-09  5.47E-09  2.82E-09  9.02E-09  9.46E-09  4.31E-09  6.58E-09
  6.34E-09  3.68E-09  9.51E-09  6.50E-09  9.05E-09  4.53E-09  1.64E-09  6.17E-09
  2.77E-09  3.82E-09  3.59E-09  2.99E-09
 -1.4080E-01 -1.3327E-01  3.8623E-03  1.0120E-02  2.8342E-01  2.9580E-01
  3.1657E-01  3.1673E-01  5.0216E-01  5.1645E-01  5.8872E-01  6.0376E-01
  7.1683E-01  7.3058E-01  7.8748E-01  7.9175E-01  8.0242E-01  8.0518E-01
  8.3291E-01  8.4878E-01
 Non-SCF case, kpt   45 (  0.47500  0.27500  0.75000), residuals and eigenvalues=
  7.23E-09  3.01E-09  3.43E-09  6.39E-09  4.97E-09  2.64E-09  6.53E-09  2.60E-09
  3.89E-09  8.72E-09  2.51E-09  3.92E-09  3.27E-09  8.55E-09  5.65E-09  4.22E-09
  5.51E-09  9.19E-09  8.04E-09  8.05E-07
 -1.4421E-01 -1.3016E-01  1.3090E-03  1.4544E-02  2.6770E-01  2.9485E-01
  3.2496E-01  3.2744E-01  4.9356E-01  5.1959E-01  5.8490E-01  6.1281E-01
  7.1007E-01  7.3455E-01  7.8058E-01  7.8065E-01  8.0051E-01  8.1550E-01
  8.3093E-01  8.6590E-01
  prteigrs : nnsclo,ikpt=   20   45 max resid (incl. the buffer)=  8.05004E-07
 Non-SCF case, kpt   46 (  0.46250  0.28750  0.75000), residuals and eigenvalues=
  8.33E-09  2.49E-09  4.53E-09  2.83E-09  2.85E-09  4.96E-09  4.57E-09  3.28E-09
  9.06E-09  9.18E-09  3.54E-09  5.29E-09  5.84E-09  3.37E-09  5.13E-09  5.29E-09
  5.72E-09  5.10E-09  8.67E-09  3.05E-06
 -1.4723E-01 -1.2763E-01 -9.7371E-04  1.9819E-02  2.5207E-01  2.9331E-01
  3.3430E-01  3.3928E-01  4.8435E-01  5.1774E-01  5.8548E-01  6.2216E-01
  7.0394E-01  7.3508E-01  7.6775E-01  7.7448E-01  8.0007E-01  8.2557E-01
  8.3115E-01  8.8381E-01
  prteigrs : nnsclo,ikpt=   20   46 max resid (incl. the buffer)=  3.04560E-06
 Non-SCF case, kpt   47 (  0.45000  0.30000  0.75000), residuals and eigenvalues=
  4.38E-09  3.29E-09  2.80E-09  5.20E-09  8.73E-09  2.63E-09  2.86E-09  6.37E-09
  8.19E-09  2.76E-09  5.09E-09  3.91E-09  9.63E-09  3.37E-09  5.37E-09  3.48E-09
  8.69E-09  7.90E-09  4.18E-09  2.08E-05
 -1.4986E-01 -1.2563E-01 -2.9728E-03  2.5755E-02  2.3720E-01  2.9175E-01
  3.4421E-01  3.5159E-01  4.7473E-01  5.1119E-01  5.9059E-01  6.3184E-01
  6.9861E-01  7.3268E-01  7.5411E-01  7.6787E-01  8.0356E-01  8.2853E-01
  8.3984E-01  9.0097E-01
  prteigrs : nnsclo,ikpt=   20   47 max resid (incl. the buffer)=  2.08479E-05
 Non-SCF case, kpt   48 (  0.43750  0.31250  0.75000), residuals and eigenvalues=
  2.12E-09  7.10E-09  3.98E-09  6.37E-09  1.86E-09  1.94E-09  8.64E-09  7.97E-10
  6.55E-09  2.18E-09  6.90E-09  2.89E-09  6.31E-09  5.19E-09  3.86E-09  5.75E-09
  3.45E-09  9.14E-09  3.58E-09  9.59E-05
 -1.5208E-01 -1.2409E-01 -4.6805E-03  3.2083E-02  2.2340E-01  2.9029E-01
  3.5445E-01  3.6421E-01  4.6478E-01  5.0134E-01  5.9882E-01  6.4171E-01
  6.9393E-01  7.2841E-01  7.4026E-01  7.6053E-01  8.1012E-01  8.2869E-01
  8.5189E-01  9.1642E-01
  prteigrs : nnsclo,ikpt=   20   48 max resid (incl. the buffer)=  9.58711E-05
 Non-SCF case, kpt   49 (  0.42500  0.32500  0.75000), residuals and eigenvalues=
  7.43E-09  7.41E-09  3.52E-09  1.57E-09  8.70E-10  6.30E-09  6.79E-09  6.90E-09
  8.72E-09  5.12E-09  2.66E-09  4.99E-09  3.36E-09  3.14E-09  9.25E-09  7.37E-09
  7.43E-09  5.71E-09  7.31E-09  7.76E-05
 -1.5390E-01 -1.2294E-01 -6.0871E-03  3.8454E-02  2.1099E-01  2.8906E-01
  3.6489E-01  3.7703E-01  4.5460E-01  4.8981E-01  6.0891E-01  6.5173E-01
  6.8984E-01  7.2327E-01  7.2677E-01  7.5314E-01  8.1843E-01  8.2875E-01
  8.6447E-01  9.2447E-01
  prteigrs : nnsclo,ikpt=   20   49 max resid (incl. the buffer)=  7.75814E-05
 Non-SCF case, kpt   50 (  0.41250  0.33750  0.75000), residuals and eigenvalues=
  4.84E-09  1.22E-09  7.93E-09  6.65E-09  1.03E-09  3.53E-09  8.53E-09  1.92E-09
  7.44E-09  6.68E-09  7.05E-09  2.47E-09  7.18E-09  3.01E-09  8.88E-09  9.29E-09
  7.21E-09  9.99E-09  1.87E-07  9.27E-05
 -1.5531E-01 -1.2212E-01 -7.1887E-03  4.4405E-02  2.0039E-01  2.8806E-01
  3.7538E-01  3.8992E-01  4.4428E-01  4.7738E-01  6.1986E-01  6.6168E-01
  6.8586E-01  7.1428E-01  7.1744E-01  7.4644E-01  8.2725E-01  8.2876E-01
  8.7713E-01  9.1776E-01
  prteigrs : nnsclo,ikpt=   20   50 max resid (incl. the buffer)=  9.27219E-05
 Non-SCF case, kpt   51 (  0.40000  0.35000  0.75000), residuals and eigenvalues=
  3.04E-09  5.96E-09  1.59E-09  3.47E-09  8.15E-09  3.68E-09  3.72E-09  1.60E-09
  4.93E-09  4.45E-09  2.08E-09  2.68E-09  1.64E-09  4.84E-09  8.47E-09  8.13E-09
  8.21E-09  6.38E-09  3.27E-07  1.86E-05
 -1.5633E-01 -1.2158E-01 -7.9782E-03  4.9367E-02  1.9215E-01  2.8734E-01
  3.8568E-01  4.0251E-01  4.3413E-01  4.6491E-01  6.3110E-01  6.7130E-01
  6.8121E-01  7.0392E-01  7.1103E-01  7.4116E-01  8.2879E-01  8.3546E-01
  8.8936E-01  9.1000E-01
  prteigrs : nnsclo,ikpt=   20   51 max resid (incl. the buffer)=  1.85630E-05
 Non-SCF case, kpt   52 (  0.38750  0.36250  0.75000), residuals and eigenvalues=
  3.00E-09  7.21E-09  2.15E-09  2.96E-09  7.65E-09  5.82E-09  2.43E-09  8.45E-09
  3.05E-09  4.64E-09  9.33E-09  1.44E-09  1.10E-09  6.47E-09  4.64E-09  9.28E-09
  7.53E-09  3.53E-09  1.24E-06  3.39E-06
 -1.5694E-01 -1.2127E-01 -8.4533E-03  5.2707E-02  1.8686E-01  2.8691E-01
  3.9506E-01  4.1377E-01  4.2487E-01  4.5367E-01  6.4130E-01  6.7514E-01
  6.7986E-01  6.9754E-01  7.0437E-01  7.3794E-01  8.2881E-01  8.4164E-01
  8.9981E-01  9.0430E-01
  prteigrs : nnsclo,ikpt=   20   52 max resid (incl. the buffer)=  3.38738E-06
 Non-SCF case, kpt   53 (  0.37500  0.37500  0.75000), residuals and eigenvalues=
  2.51E-09  3.18E-09  1.61E-09  9.73E-09  6.34E-09  2.19E-09  4.73E-09  1.38E-09
  2.48E-09  2.34E-09  6.42E-09  3.37E-09  1.60E-09  4.90E-09  6.78E-09  5.70E-09
  7.62E-09  5.11E-09  1.88E-06  1.84E-06
 -1.5714E-01 -1.2117E-01 -8.6116E-03  5.3893E-02  1.8504E-01  2.8677E-01
  4.0000E-01  4.1943E-01  4.1998E-01  4.4803E-01  6.4643E-01  6.7126E-01
  6.8435E-01  6.9562E-01  7.0055E-01  7.3683E-01  8.2883E-01  8.4405E-01
  9.0207E-01  9.0460E-01
  prteigrs : nnsclo,ikpt=   20   53 max resid (incl. the buffer)=  1.88109E-06
 Non-SCF case, kpt   54 (  0.36250  0.36250  0.72500), residuals and eigenvalues=
  3.42E-09  6.19E-09  4.92E-09  1.07E-09  5.01E-10  5.33E-09  6.25E-09  9.51E-09
  8.01E-09  7.15E-09  6.98E-09  5.75E-09  5.47E-09  7.26E-09  3.31E-09  9.44E-09
  7.06E-09  7.77E-09  1.03E-05  1.42E-05
[...]
                      -1.00000000E-01 -1.00000000E-01  1.00000000E-01
                       1.00000000E-01  1.00000000E-01  3.00000000E-01
                       3.00000000E-01  1.00000000E-01  3.00000000E-01
                       5.00000000E-01  1.00000000E-01  3.00000000E-01
                      -3.00000000E-01  1.00000000E-01  3.00000000E-01
                      -1.00000000E-01  1.00000000E-01  3.00000000E-01
                       1.00000000E-01  3.00000000E-01  3.00000000E-01
                       3.00000000E-01  3.00000000E-01  3.00000000E-01
                       5.00000000E-01  3.00000000E-01  3.00000000E-01
                      -3.00000000E-01  3.00000000E-01  3.00000000E-01
                      -1.00000000E-01  3.00000000E-01  3.00000000E-01
                       1.00000000E-01  5.00000000E-01  3.00000000E-01
                       3.00000000E-01  5.00000000E-01  3.00000000E-01
                       5.00000000E-01  5.00000000E-01  3.00000000E-01
                      -3.00000000E-01  5.00000000E-01  3.00000000E-01
                      -1.00000000E-01  5.00000000E-01  3.00000000E-01
                       1.00000000E-01 -3.00000000E-01  3.00000000E-01
                       3.00000000E-01 -3.00000000E-01  3.00000000E-01
                       5.00000000E-01 -3.00000000E-01  3.00000000E-01
                      -3.00000000E-01 -3.00000000E-01  3.00000000E-01
                      -1.00000000E-01 -3.00000000E-01  3.00000000E-01
                       1.00000000E-01 -1.00000000E-01  3.00000000E-01
                       3.00000000E-01 -1.00000000E-01  3.00000000E-01
                       5.00000000E-01 -1.00000000E-01  3.00000000E-01
                      -3.00000000E-01 -1.00000000E-01  3.00000000E-01
                      -1.00000000E-01 -1.00000000E-01  3.00000000E-01
              kpt3     0.00000000E+00  0.00000000E+00  0.00000000E+00
                       1.78571429E-02  0.00000000E+00  1.78571429E-02
                       3.57142857E-02  0.00000000E+00  3.57142857E-02
                       5.35714286E-02  0.00000000E+00  5.35714286E-02
                       7.14285714E-02  0.00000000E+00  7.14285714E-02
                       8.92857143E-02  0.00000000E+00  8.92857143E-02
                       1.07142857E-01  0.00000000E+00  1.07142857E-01
                       1.25000000E-01  0.00000000E+00  1.25000000E-01
                       1.42857143E-01  0.00000000E+00  1.42857143E-01
                       1.60714286E-01  0.00000000E+00  1.60714286E-01
                       1.78571429E-01  0.00000000E+00  1.78571429E-01
                       1.96428571E-01  0.00000000E+00  1.96428571E-01
                       2.14285714E-01  0.00000000E+00  2.14285714E-01
                       2.32142857E-01  0.00000000E+00  2.32142857E-01
                       2.50000000E-01  0.00000000E+00  2.50000000E-01
                       2.67857143E-01  0.00000000E+00  2.67857143E-01
                       2.85714286E-01  0.00000000E+00  2.85714286E-01
                       3.03571429E-01  0.00000000E+00  3.03571429E-01
                       3.21428571E-01  0.00000000E+00  3.21428571E-01
                       3.39285714E-01  0.00000000E+00  3.39285714E-01
                       3.57142857E-01  0.00000000E+00  3.57142857E-01
                       3.75000000E-01  0.00000000E+00  3.75000000E-01
                       3.92857143E-01  0.00000000E+00  3.92857143E-01
                       4.10714286E-01  0.00000000E+00  4.10714286E-01
                       4.28571429E-01  0.00000000E+00  4.28571429E-01
                       4.46428571E-01  0.00000000E+00  4.46428571E-01
                       4.64285714E-01  0.00000000E+00  4.64285714E-01
                       4.82142857E-01  0.00000000E+00  4.82142857E-01
                       5.00000000E-01  0.00000000E+00  5.00000000E-01
                       5.00000000E-01  1.78571429E-02  5.17857143E-01
                       5.00000000E-01  3.57142857E-02  5.35714286E-01
                       5.00000000E-01  5.35714286E-02  5.53571429E-01
                       5.00000000E-01  7.14285714E-02  5.71428571E-01
                       5.00000000E-01  8.92857143E-02  5.89285714E-01
                       5.00000000E-01  1.07142857E-01  6.07142857E-01
                       5.00000000E-01  1.25000000E-01  6.25000000E-01
                       5.00000000E-01  1.42857143E-01  6.42857143E-01
                       5.00000000E-01  1.60714286E-01  6.60714286E-01
                       5.00000000E-01  1.78571429E-01  6.78571429E-01
                       5.00000000E-01  1.96428571E-01  6.96428571E-01
                       5.00000000E-01  2.14285714E-01  7.14285714E-01
                       5.00000000E-01  2.32142857E-01  7.32142857E-01
                       5.00000000E-01  2.50000000E-01  7.50000000E-01
                       4.87500000E-01  2.62500000E-01  7.50000000E-01
                       4.75000000E-01  2.75000000E-01  7.50000000E-01
                       4.62500000E-01  2.87500000E-01  7.50000000E-01
                       4.50000000E-01  3.00000000E-01  7.50000000E-01
                       4.37500000E-01  3.12500000E-01  7.50000000E-01
                       4.25000000E-01  3.25000000E-01  7.50000000E-01
                       4.12500000E-01  3.37500000E-01  7.50000000E-01
                       outvar_i_n : Printing only first  50 k-points.
           kptopt1          1
           kptopt2          3
           kptopt3        -11
         kptrlatt        5    0    0      0    5    0      0    0    5
          kptrlen1     3.71915174E+01
          kptrlen2     3.71915174E+01
          kptrlen3     3.00000000E+01
P           mkmem1         19
P           mkmem2        125
P           mkmem3        198
            natom           2
           natsph2       2
            nband1          5
            nband2         20
            nband3         20
           nbdbuf1          0
           nbdbuf2          2
           nbdbuf3          2
           ndtset           3
           ndivsm1          0
           ndivsm2          0
           ndivsm3         10
            ngfft          24      24      24
             nkpt1         19
             nkpt2        125
             nkpt3        198
            nstep          20
             nsym          48
           ntypat           1
              occ      2.000000  2.000000  2.000000  2.000000  0.000000
           prtden1          1
           prtden2          1
           prtden3          0
           prtdos1          0
           prtdos2          3
           prtdos3          0
          prtdosm1          0
          prtdosm2          1
          prtdosm3          0
           prtelf1          0
           prtelf2          2
           prtelf3          0
            rprim      0.0000000000E+00  2.7833000422E+00  2.7833000422E+00
                       2.7833000422E+00  0.0000000000E+00  2.7833000422E+00
                       2.7833000422E+00  2.7833000422E+00  0.0000000000E+00
           shiftk      5.00000000E-01  5.00000000E-01  5.00000000E-01
          spgroup         227
           strten1     1.4559763745E-04  1.4559763745E-04  1.4559763745E-04
                       0.0000000000E+00  0.0000000000E+00  0.0000000000E+00
           symrel      1  0  0   0  1  0   0  0  1      -1  0  0   0 -1  0   0  0 -1
                       0 -1  1   0 -1  0   1 -1  0       0  1 -1   0  1  0  -1  1  0
                      -1  0  0  -1  0  1  -1  1  0       1  0  0   1  0 -1   1 -1  0
                       0  1 -1   1  0 -1   0  0 -1       0 -1  1  -1  0  1   0  0  1
                      -1  0  0  -1  1  0  -1  0  1       1  0  0   1 -1  0   1  0 -1
                       0 -1  1   1 -1  0   0 -1  0       0  1 -1  -1  1  0   0  1  0
                       1  0  0   0  0  1   0  1  0      -1  0  0   0  0 -1   0 -1  0
                       0  1 -1   0  0 -1   1  0 -1       0 -1  1   0  0  1  -1  0  1
                      -1  0  1  -1  1  0  -1  0  0       1  0 -1   1 -1  0   1  0  0
                       0 -1  0   1 -1  0   0 -1  1       0  1  0  -1  1  0   0  1 -1
                       1  0 -1   0  0 -1   0  1 -1      -1  0  1   0  0  1   0 -1  1
                       0  1  0   0  0  1   1  0  0       0 -1  0   0  0 -1  -1  0  0
                       1  0 -1   0  1 -1   0  0 -1      -1  0  1   0 -1  1   0  0  1
                       0 -1  0   0 -1  1   1 -1  0       0  1  0   0  1 -1  -1  1  0
                      -1  0  1  -1  0  0  -1  1  0       1  0 -1   1  0  0   1 -1  0
                       0  1  0   1  0  0   0  0  1       0 -1  0  -1  0  0   0  0 -1
                       0  0 -1   0  1 -1   1  0 -1       0  0  1   0 -1  1  -1  0  1
                       1 -1  0   0 -1  1   0 -1  0      -1  1  0   0  1 -1   0  1  0
                       0  0  1   1  0  0   0  1  0       0  0 -1  -1  0  0   0 -1  0
                      -1  1  0  -1  0  0  -1  0  1       1 -1  0   1  0  0   1  0 -1
                       0  0  1   0  1  0   1  0  0       0  0 -1   0 -1  0  -1  0  0
                       1 -1  0   0 -1  0   0 -1  1      -1  1  0   0  1  0   0  1 -1
                       0  0 -1   1  0 -1   0  1 -1       0  0  1  -1  0  1   0 -1  1
                      -1  1  0  -1  0  1  -1  0  0       1 -1  0   1  0 -1   1  0  0
            tnons      0.0000000  0.0000000  0.0000000     0.2500000  0.2500000  0.2500000
                       0.0000000  0.0000000  0.0000000     0.2500000  0.2500000  0.2500000
                       0.0000000  0.0000000  0.0000000     0.2500000  0.2500000  0.2500000
                       0.0000000  0.0000000  0.0000000     0.2500000  0.2500000  0.2500000
                       0.0000000  0.0000000  0.0000000     0.2500000  0.2500000  0.2500000
                       0.0000000  0.0000000  0.0000000     0.2500000  0.2500000  0.2500000
                       0.0000000  0.0000000  0.0000000     0.2500000  0.2500000  0.2500000
                       0.0000000  0.0000000  0.0000000     0.2500000  0.2500000  0.2500000
                       0.0000000  0.0000000  0.0000000     0.2500000  0.2500000  0.2500000
                       0.0000000  0.0000000  0.0000000     0.2500000  0.2500000  0.2500000
                       0.0000000  0.0000000  0.0000000     0.2500000  0.2500000  0.2500000
                       0.0000000  0.0000000  0.0000000     0.2500000  0.2500000  0.2500000
                       0.0000000  0.0000000  0.0000000     0.2500000  0.2500000  0.2500000
                       0.0000000  0.0000000  0.0000000     0.2500000  0.2500000  0.2500000
                       0.0000000  0.0000000  0.0000000     0.2500000  0.2500000  0.2500000
                       0.0000000  0.0000000  0.0000000     0.2500000  0.2500000  0.2500000
                       0.0000000  0.0000000  0.0000000     0.2500000  0.2500000  0.2500000
                       0.0000000  0.0000000  0.0000000     0.2500000  0.2500000  0.2500000
                       0.0000000  0.0000000  0.0000000     0.2500000  0.2500000  0.2500000
                       0.0000000  0.0000000  0.0000000     0.2500000  0.2500000  0.2500000
                       0.0000000  0.0000000  0.0000000     0.2500000  0.2500000  0.2500000
                       0.0000000  0.0000000  0.0000000     0.2500000  0.2500000  0.2500000
                       0.0000000  0.0000000  0.0000000     0.2500000  0.2500000  0.2500000
                       0.0000000  0.0000000  0.0000000     0.2500000  0.2500000  0.2500000
           toldfe1     1.00000000E-06 Hartree
           toldfe2     0.00000000E+00 Hartree
           toldfe3     0.00000000E+00 Hartree
           tolwfr1     0.00000000E+00
           tolwfr2     1.00000000E-10
           tolwfr3     1.00000000E-08
            typat      1  1
              wtk1       0.01600    0.04800    0.04800    0.04800    0.04800    0.04800
                         0.09600    0.09600    0.09600    0.04800    0.09600    0.04800
                         0.04800    0.01600    0.04800    0.04800    0.04800    0.04800
                         0.00800
              wtk2       0.00800    0.00800    0.00800    0.00800    0.00800    0.00800
                         0.00800    0.00800    0.00800    0.00800    0.00800    0.00800
                         0.00800    0.00800    0.00800    0.00800    0.00800    0.00800
                         0.00800    0.00800    0.00800    0.00800    0.00800    0.00800
                         0.00800    0.00800    0.00800    0.00800    0.00800    0.00800
                         0.00800    0.00800    0.00800    0.00800    0.00800    0.00800
                         0.00800    0.00800    0.00800    0.00800    0.00800    0.00800
                         0.00800    0.00800    0.00800    0.00800    0.00800    0.00800
                         0.00800    0.00800
              wtk3       1.00000    1.00000    1.00000    1.00000    1.00000    1.00000
                         1.00000    1.00000    1.00000    1.00000    1.00000    1.00000
                         1.00000    1.00000    1.00000    1.00000    1.00000    1.00000
                         1.00000    1.00000    1.00000    1.00000    1.00000    1.00000
                         1.00000    1.00000    1.00000    1.00000    1.00000    1.00000
                         1.00000    1.00000    1.00000    1.00000    1.00000    1.00000
                         1.00000    1.00000    1.00000    1.00000    1.00000    1.00000
                         1.00000    1.00000    1.00000    1.00000    1.00000    1.00000
                         1.00000    1.00000
                       outvars : Printing only first  50 k-points.
           xangst      0.0000000000E+00  0.0000000000E+00  0.0000000000E+00
                       1.3916500211E+00  1.3916500211E+00  1.3916500211E+00
            xcart      0.0000000000E+00  0.0000000000E+00  0.0000000000E+00
                       2.6298374127E+00  2.6298374127E+00  2.6298374127E+00
             xred      0.0000000000E+00  0.0000000000E+00  0.0000000000E+00
                       2.5000000000E-01  2.5000000000E-01  2.5000000000E-01
            znucl       14.00000

================================================================================


- Timing analysis has been suppressed with timopt=0



================================================================================

 Suggested references for the acknowledgment of ABINIT usage.

 The users of ABINIT have little formal obligations with respect to the ABINIT group
 (those specified in the GNU General Public License, http://www.gnu.org/copyleft/gpl.txt).
 However, it is common practice in the scientific literature,
 to acknowledge the efforts of people that have made the research possible.
 In this spirit, please find below suggested citations of work written by ABINIT developers,
 corresponding to implementations inside of ABINIT that you have used in the present run.
 Note also that it will be of great value to readers of publications presenting these results,
 to read papers enabling them to understand the theoretical formalism and details
 of the ABINIT implementation.
 For information on why they are suggested, see also https://docs.abinit.org/theory/acknowledgments.
-
- [1] The Abinit project: Impact, environment and recent developments.
- Computer Phys. Comm. 248, 107042 (2020).
- X.Gonze, B. Amadon, G. Antonius, F.Arnardi, L.Baguet, J.-M.Beuken,
- J.Bieder, F.Bottin, J.Bouchet, E.Bousquet, N.Brouwer, F.Bruneval,
- G.Brunin, T.Cavignac, J.-B. Charraud, Wei Chen, M.Cote, S.Cottenier,
- J.Denier, G.Geneste, Ph.Ghosez, M.Giantomassi, Y.Gillet, O.Gingras,
- D.R.Hamann, G.Hautier, Xu He, N.Helbig, N.Holzwarth, Y.Jia, F.Jollet,
- W.Lafargue-Dit-Hauret, K.Lejaeghere, M.A.L.Marques, A.Martin, C.Martins,
- H.P.C. Miranda, F.Naccarato, K. Persson, G.Petretto, V.Planes, Y.Pouillon,
- S.Prokhorenko, F.Ricci, G.-M.Rignanese, A.H.Romero, M.M.Schmitt, M.Torrent,
- M.J.van Setten, B.Van Troeye, M.J.Verstraete, G.Zerah and J.W.Zwanzig
- Comment: the fifth generic paper describing the ABINIT project.
- Note that a version of this paper, that is not formatted for Computer Phys. Comm. 
- is available at https://www.abinit.org/sites/default/files/ABINIT20.pdf .
- The licence allows the authors to put it on the Web.
- DOI and bibtex: see https://docs.abinit.org/theory/bibliography/#gonze2020
-
- [2] Optimized norm-conserving Vanderbilt pseudopotentials.
- D.R. Hamann, Phys. Rev. B 88, 085117 (2013).
- Comment: Some pseudopotential generated using the ONCVPSP code were used.
- DOI and bibtex: see https://docs.abinit.org/theory/bibliography/#hamann2013
-
- [3] ABINIT: Overview, and focus on selected capabilities
- J. Chem. Phys. 152, 124102 (2020).
- A. Romero, D.C. Allan, B. Amadon, G. Antonius, T. Applencourt, L.Baguet,
- J.Bieder, F.Bottin, J.Bouchet, E.Bousquet, F.Bruneval,
- G.Brunin, D.Caliste, M.Cote,
- J.Denier, C. Dreyer, Ph.Ghosez, M.Giantomassi, Y.Gillet, O.Gingras,
- D.R.Hamann, G.Hautier, F.Jollet, G. Jomard,
- A.Martin, 
- H.P.C. Miranda, F.Naccarato, G.Petretto, N.A. Pike, V.Planes,
- S.Prokhorenko, T. Rangel, F.Ricci, G.-M.Rignanese, M.Royo, M.Stengel, M.Torrent,
- M.J.van Setten, B.Van Troeye, M.J.Verstraete, J.Wiktor, J.W.Zwanziger, and X.Gonze.
- Comment: a global overview of ABINIT, with focus on selected capabilities .
- Note that a version of this paper, that is not formatted for J. Chem. Phys 
- is available at https://www.abinit.org/sites/default/files/ABINIT20_JPC.pdf .
- The licence allows the authors to put it on the Web.
- DOI and bibtex: see https://docs.abinit.org/theory/bibliography/#romero2020
-
- [4] Recent developments in the ABINIT software package.
- Computer Phys. Comm. 205, 106 (2016).
- X.Gonze, F.Jollet, F.Abreu Araujo, D.Adams, B.Amadon, T.Applencourt,
- C.Audouze, J.-M.Beuken, J.Bieder, A.Bokhanchuk, E.Bousquet, F.Bruneval
- D.Caliste, M.Cote, F.Dahm, F.Da Pieve, M.Delaveau, M.Di Gennaro,
- B.Dorado, C.Espejo, G.Geneste, L.Genovese, A.Gerossier, M.Giantomassi,
- Y.Gillet, D.R.Hamann, L.He, G.Jomard, J.Laflamme Janssen, S.Le Roux,
- A.Levitt, A.Lherbier, F.Liu, I.Lukacevic, A.Martin, C.Martins,
- M.J.T.Oliveira, S.Ponce, Y.Pouillon, T.Rangel, G.-M.Rignanese,
- A.H.Romero, B.Rousseau, O.Rubel, A.A.Shukri, M.Stankovski, M.Torrent,
- M.J.Van Setten, B.Van Troeye, M.J.Verstraete, D.Waroquier, J.Wiktor,
- B.Xu, A.Zhou, J.W.Zwanziger.
- Comment: the fourth generic paper describing the ABINIT project.
- Note that a version of this paper, that is not formatted for Computer Phys. Comm. 
- is available at https://www.abinit.org/sites/default/files/ABINIT16.pdf .
- The licence allows the authors to put it on the Web.
- DOI and bibtex: see https://docs.abinit.org/theory/bibliography/#gonze2016
-
- And optionally:
-
- [5] ABINIT: First-principles approach of materials and nanosystem properties.
- Computer Phys. Comm. 180, 2582-2615 (2009).
- X. Gonze, B. Amadon, P.-M. Anglade, J.-M. Beuken, F. Bottin, P. Boulanger, F. Bruneval,
- D. Caliste, R. Caracas, M. Cote, T. Deutsch, L. Genovese, Ph. Ghosez, M. Giantomassi
- S. Goedecker, D.R. Hamann, P. Hermet, F. Jollet, G. Jomard, S. Leroux, M. Mancini, S. Mazevet,
- M.J.T. Oliveira, G. Onida, Y. Pouillon, T. Rangel, G.-M. Rignanese, D. Sangalli, R. Shaltaf,
- M. Torrent, M.J. Verstraete, G. Zerah, J.W. Zwanziger
- Comment: the third generic paper describing the ABINIT project.
- Note that a version of this paper, that is not formatted for Computer Phys. Comm. 
- is available at https://www.abinit.org/sites/default/files/ABINIT_CPC_v10.pdf .
- The licence allows the authors to put it on the Web.
- DOI and bibtex: see https://docs.abinit.org/theory/bibliography/#gonze2009
-
- Proc.   0 individual time (sec): cpu=        282.7  wall=        102.0

================================================================================

 Calculation completed.
.Delivered   4 WARNINGs and  16 COMMENTs to log file.
+Overall time at end (sec) : cpu=        282.7  wall=        102.0
