 # generated by phonopy
  
           8  atoms
           1  atom types
 
      0.000000000000       5.431230748449  xlo xhi
      0.000000000000       5.431230748449  ylo yhi
      0.000000000000       5.431230748449  zlo zhi
 
Masses
 
            1   28.08500000             # Si
 
Atoms # atomic
 
         1    1        1.357807687112       1.357807687112       4.073423061337
         2    1        0.000000000000       2.715615374225       0.000000000000
         3    1        1.357807687112       4.073423061337       1.357807687112
         4    1        0.000000000000       0.000000000000       2.715615374225
         5    1        4.073423061337       1.357807687112       1.357807687112
         6    1        2.715615374225       2.715615374225       2.715615374225
         7    1        4.073423061337       4.073423061337       4.073423061337
         8    1        2.715615374225       0.000000000000       0.000000000000
