phonopy:
  version: "2.43.2"
  calculator: abinit
  frequency_unit_conversion_factor: 15.633302
  symmetry_tolerance: 1.00000e-08
  configuration:
    dim: "3 3 1"
    pm: ".TRUE."
    cell_filename: "prim.in"
    create_displacements: ".true."
    symmetry_tolerance: "1e-08"
    calculator: "abinit"

physical_unit:
  atomic_mass: "AMU"
  length: "au"

space_group:
  type: "P6_3/mmc"
  number: 194
  Hall_symbol: "-P 6c 2c"

supercell_matrix:
- [   3,   0,   0 ]
- [   0,   3,   0 ]
- [   0,   0,   1 ]

primitive_cell:
  lattice:
  - [     3.018676668349999,    -5.228501361178147,     0.000000000000000 ] # a
  - [     3.018676668349999,     5.228501361178147,     0.000000000000000 ] # b
  - [     0.000000000000000,     0.000000000000000,    25.685222632999999 ] # c
  points:
  - symbol: Mo # 1
    coordinates: [  0.666666666670000,  0.333333333330000,  0.250000000000000 ]
    mass: 95.960000
  - symbol: Mo # 2
    coordinates: [  0.333333333330000,  0.666666666670000,  0.750000000000000 ]
    mass: 95.960000
  - symbol: S # 3
    coordinates: [  0.666666666670000,  0.333333333330000,  0.635231266500000 ]
    mass: 32.065000
  - symbol: S # 4
    coordinates: [  0.333333333330000,  0.666666666670000,  0.364768733500000 ]
    mass: 32.065000
  - symbol: S # 5
    coordinates: [  0.666666666670000,  0.333333333330000,  0.864768733500000 ]
    mass: 32.065000
  - symbol: S # 6
    coordinates: [  0.333333333330000,  0.666666666670000,  0.135231266500000 ]
    mass: 32.065000
  reciprocal_lattice: # without 2pi
  - [     0.165635493606309,    -0.095629696821449,     0.000000000000000 ] # a*
  - [     0.165635493606309,     0.095629696821449,     0.000000000000000 ] # b*
  - [     0.000000000000000,     0.000000000000000,     0.038932892048022 ] # c*

unit_cell:
  lattice:
  - [     3.018676668350000,    -5.228501361178147,     0.000000000000000 ] # a
  - [     3.018676668350000,     5.228501361178147,     0.000000000000000 ] # b
  - [     0.000000000000000,     0.000000000000000,    25.685222632999999 ] # c
  points:
  - symbol: Mo # 1
    coordinates: [  0.666666666670000,  0.333333333330000,  0.250000000000000 ]
    mass: 95.960000
    reduced_to: 1
  - symbol: Mo # 2
    coordinates: [  0.333333333330000,  0.666666666670000,  0.750000000000000 ]
    mass: 95.960000
    reduced_to: 2
  - symbol: S # 3
    coordinates: [  0.666666666670000,  0.333333333330000,  0.635231266500000 ]
    mass: 32.065000
    reduced_to: 3
  - symbol: S # 4
    coordinates: [  0.333333333330000,  0.666666666670000,  0.364768733500000 ]
    mass: 32.065000
    reduced_to: 4
  - symbol: S # 5
    coordinates: [  0.666666666670000,  0.333333333330000,  0.864768733500000 ]
    mass: 32.065000
    reduced_to: 5
  - symbol: S # 6
    coordinates: [  0.333333333330000,  0.666666666670000,  0.135231266500000 ]
    mass: 32.065000
    reduced_to: 6

supercell:
  lattice:
  - [     9.056030005049999,   -15.685504083534443,     0.000000000000000 ] # a
  - [     9.056030005049999,    15.685504083534443,     0.000000000000000 ] # b
  - [     0.000000000000000,     0.000000000000000,    25.685222632999999 ] # c
  points:
  - symbol: Mo # 1
    coordinates: [  0.222222222223333,  0.111111111110000,  0.250000000000000 ]
    mass: 95.960000
    reduced_to: 1
  - symbol: Mo # 2
    coordinates: [  0.555555555556667,  0.111111111110000,  0.250000000000000 ]
    mass: 95.960000
    reduced_to: 1
  - symbol: Mo # 3
    coordinates: [  0.888888888890000,  0.111111111110000,  0.250000000000000 ]
    mass: 95.960000
    reduced_to: 1
  - symbol: Mo # 4
    coordinates: [  0.222222222223333,  0.444444444443333,  0.250000000000000 ]
    mass: 95.960000
    reduced_to: 1
  - symbol: Mo # 5
    coordinates: [  0.555555555556667,  0.444444444443333,  0.250000000000000 ]
    mass: 95.960000
    reduced_to: 1
  - symbol: Mo # 6
    coordinates: [  0.888888888890000,  0.444444444443333,  0.250000000000000 ]
    mass: 95.960000
    reduced_to: 1
  - symbol: Mo # 7
    coordinates: [  0.222222222223333,  0.777777777776667,  0.250000000000000 ]
    mass: 95.960000
    reduced_to: 1
  - symbol: Mo # 8
    coordinates: [  0.555555555556667,  0.777777777776667,  0.250000000000000 ]
    mass: 95.960000
    reduced_to: 1
  - symbol: Mo # 9
    coordinates: [  0.888888888890000,  0.777777777776667,  0.250000000000000 ]
    mass: 95.960000
    reduced_to: 1
  - symbol: Mo # 10
    coordinates: [  0.111111111110000,  0.222222222223333,  0.750000000000000 ]
    mass: 95.960000
    reduced_to: 10
  - symbol: Mo # 11
    coordinates: [  0.444444444443333,  0.222222222223333,  0.750000000000000 ]
    mass: 95.960000
    reduced_to: 10
  - symbol: Mo # 12
    coordinates: [  0.777777777776667,  0.222222222223333,  0.750000000000000 ]
    mass: 95.960000
    reduced_to: 10
  - symbol: Mo # 13
    coordinates: [  0.111111111110000,  0.555555555556667,  0.750000000000000 ]
    mass: 95.960000
    reduced_to: 10
  - symbol: Mo # 14
    coordinates: [  0.444444444443333,  0.555555555556667,  0.750000000000000 ]
    mass: 95.960000
    reduced_to: 10
  - symbol: Mo # 15
    coordinates: [  0.777777777776667,  0.555555555556667,  0.750000000000000 ]
    mass: 95.960000
    reduced_to: 10
  - symbol: Mo # 16
    coordinates: [  0.111111111110000,  0.888888888890000,  0.750000000000000 ]
    mass: 95.960000
    reduced_to: 10
  - symbol: Mo # 17
    coordinates: [  0.444444444443333,  0.888888888890000,  0.750000000000000 ]
    mass: 95.960000
    reduced_to: 10
  - symbol: Mo # 18
    coordinates: [  0.777777777776667,  0.888888888890000,  0.750000000000000 ]
    mass: 95.960000
    reduced_to: 10
  - symbol: S # 19
    coordinates: [  0.222222222223333,  0.111111111110000,  0.635231266500000 ]
    mass: 32.065000
    reduced_to: 19
  - symbol: S # 20
    coordinates: [  0.555555555556667,  0.111111111110000,  0.635231266500000 ]
    mass: 32.065000
    reduced_to: 19
  - symbol: S # 21
    coordinates: [  0.888888888890000,  0.111111111110000,  0.635231266500000 ]
    mass: 32.065000
    reduced_to: 19
  - symbol: S # 22
    coordinates: [  0.222222222223333,  0.444444444443333,  0.635231266500000 ]
    mass: 32.065000
    reduced_to: 19
  - symbol: S # 23
    coordinates: [  0.555555555556667,  0.444444444443333,  0.635231266500000 ]
    mass: 32.065000
    reduced_to: 19
  - symbol: S # 24
    coordinates: [  0.888888888890000,  0.444444444443333,  0.635231266500000 ]
    mass: 32.065000
    reduced_to: 19
  - symbol: S # 25
    coordinates: [  0.222222222223333,  0.777777777776667,  0.635231266500000 ]
    mass: 32.065000
    reduced_to: 19
  - symbol: S # 26
    coordinates: [  0.555555555556667,  0.777777777776667,  0.635231266500000 ]
    mass: 32.065000
    reduced_to: 19
  - symbol: S # 27
    coordinates: [  0.888888888890000,  0.777777777776667,  0.635231266500000 ]
    mass: 32.065000
    reduced_to: 19
  - symbol: S # 28
    coordinates: [  0.111111111110000,  0.222222222223333,  0.364768733500000 ]
    mass: 32.065000
    reduced_to: 28
  - symbol: S # 29
    coordinates: [  0.444444444443333,  0.222222222223333,  0.364768733500000 ]
    mass: 32.065000
    reduced_to: 28
  - symbol: S # 30
    coordinates: [  0.777777777776667,  0.222222222223333,  0.364768733500000 ]
    mass: 32.065000
    reduced_to: 28
  - symbol: S # 31
    coordinates: [  0.111111111110000,  0.555555555556667,  0.364768733500000 ]
    mass: 32.065000
    reduced_to: 28
  - symbol: S # 32
    coordinates: [  0.444444444443333,  0.555555555556667,  0.364768733500000 ]
    mass: 32.065000
    reduced_to: 28
  - symbol: S # 33
    coordinates: [  0.777777777776667,  0.555555555556667,  0.364768733500000 ]
    mass: 32.065000
    reduced_to: 28
  - symbol: S # 34
    coordinates: [  0.111111111110000,  0.888888888890000,  0.364768733500000 ]
    mass: 32.065000
    reduced_to: 28
  - symbol: S # 35
    coordinates: [  0.444444444443333,  0.888888888890000,  0.364768733500000 ]
    mass: 32.065000
    reduced_to: 28
  - symbol: S # 36
    coordinates: [  0.777777777776667,  0.888888888890000,  0.364768733500000 ]
    mass: 32.065000
    reduced_to: 28
  - symbol: S # 37
    coordinates: [  0.222222222223333,  0.111111111110000,  0.864768733500000 ]
    mass: 32.065000
    reduced_to: 37
  - symbol: S # 38
    coordinates: [  0.555555555556667,  0.111111111110000,  0.864768733500000 ]
    mass: 32.065000
    reduced_to: 37
  - symbol: S # 39
    coordinates: [  0.888888888890000,  0.111111111110000,  0.864768733500000 ]
    mass: 32.065000
    reduced_to: 37
  - symbol: S # 40
    coordinates: [  0.222222222223333,  0.444444444443333,  0.864768733500000 ]
    mass: 32.065000
    reduced_to: 37
  - symbol: S # 41
    coordinates: [  0.555555555556667,  0.444444444443333,  0.864768733500000 ]
    mass: 32.065000
    reduced_to: 37
  - symbol: S # 42
    coordinates: [  0.888888888890000,  0.444444444443333,  0.864768733500000 ]
    mass: 32.065000
    reduced_to: 37
  - symbol: S # 43
    coordinates: [  0.222222222223333,  0.777777777776667,  0.864768733500000 ]
    mass: 32.065000
    reduced_to: 37
  - symbol: S # 44
    coordinates: [  0.555555555556667,  0.777777777776667,  0.864768733500000 ]
    mass: 32.065000
    reduced_to: 37
  - symbol: S # 45
    coordinates: [  0.888888888890000,  0.777777777776667,  0.864768733500000 ]
    mass: 32.065000
    reduced_to: 37
  - symbol: S # 46
    coordinates: [  0.111111111110000,  0.222222222223333,  0.135231266500000 ]
    mass: 32.065000
    reduced_to: 46
  - symbol: S # 47
    coordinates: [  0.444444444443333,  0.222222222223333,  0.135231266500000 ]
    mass: 32.065000
    reduced_to: 46
  - symbol: S # 48
    coordinates: [  0.777777777776667,  0.222222222223333,  0.135231266500000 ]
    mass: 32.065000
    reduced_to: 46
  - symbol: S # 49
    coordinates: [  0.111111111110000,  0.555555555556667,  0.135231266500000 ]
    mass: 32.065000
    reduced_to: 46
  - symbol: S # 50
    coordinates: [  0.444444444443333,  0.555555555556667,  0.135231266500000 ]
    mass: 32.065000
    reduced_to: 46
  - symbol: S # 51
    coordinates: [  0.777777777776667,  0.555555555556667,  0.135231266500000 ]
    mass: 32.065000
    reduced_to: 46
  - symbol: S # 52
    coordinates: [  0.111111111110000,  0.888888888890000,  0.135231266500000 ]
    mass: 32.065000
    reduced_to: 46
  - symbol: S # 53
    coordinates: [  0.444444444443333,  0.888888888890000,  0.135231266500000 ]
    mass: 32.065000
    reduced_to: 46
  - symbol: S # 54
    coordinates: [  0.777777777776667,  0.888888888890000,  0.135231266500000 ]
    mass: 32.065000
    reduced_to: 46

displacements:
- atom:    1
  displacement:
    [   0.0057628631986275, -0.0099815718570406,  0.0163449573574433 ]
- atom:    1
  displacement:
    [  -0.0057628631986275,  0.0099815718570406, -0.0163449573574433 ]
- atom:   19
  displacement:
    [   0.0057628631986275, -0.0099815718570406,  0.0163449573574433 ]
- atom:   19
  displacement:
    [  -0.0057628631986275,  0.0099815718570406, -0.0163449573574433 ]
