
.Version 10.0.9 of ABINIT, released Sep 2024.
.(MPI version, prepared for a x86_64_linux_intel2021.6 computer) 

.Copyright (C) 1998-2024 ABINIT group . 
 ABINIT comes with ABSOLUTELY NO WARRANTY.
 It is free software, and you are welcome to redistribute it
 under certain conditions (GNU General Public License,
 see ~abinit/COPYING or http://www.gnu.org/copyleft/gpl.txt).

 ABINIT is a project of the Universite Catholique de Louvain,
 Corning Inc. and other collaborators, see ~abinit/doc/developers/contributors.txt .
 Please read https://docs.abinit.org/theory/acknowledgments for suggested
 acknowledgments of the ABINIT effort.
 For more information, see https://www.abinit.org .

.Starting date : Mon  8 Dec 2025.
- ( at 16h25 )
  
- input  file    -> ab.in
- output file    -> ab.abo
- root for input  files -> abi
- root for output files -> abo
 
 Symmetries : space group P1 (#  1); Bravais aP (primitive triclinic)
================================================================================
 Values of the parameters that define the memory need of the present run
     intxc =       0    ionmov =       0      iscf =       7    lmnmax =       6
     lnmax =       6     mgfft =     120  mpssoang =       3    mqgrid =    5171
     natom =      54  nloc_mem =       1    nspden =       1   nspinor =       1
    nsppol =       1      nsym =       1    n1xccc =    2501    ntypat =       2
    occopt =       1   xclevel =       2
-    mband =         280        mffmem =           1         mkmem =           1
       mpw =        1253          nfft =      135000          nkpt =           5
================================================================================
P This job should need less than                      71.205 Mbytes of memory.
  Rough estimation (10% accuracy) of disk space for files :
_ WF disk file :    133.837 Mbytes ; DEN or POT disk file :      1.032 Mbytes.
================================================================================
 
--------------------------------------------------------------------------------
------------- Echo of variables that govern the present computation ------------
--------------------------------------------------------------------------------
-
- outvars: echo of selected default values                                      
-   iomode0 =  0 , fftalg0 =512 , wfoptalg0 =  0
-
- outvars: echo of global parameters not present in the input file              
-  max_nthreads =    0
-
 -outvars: echo values of preprocessed input variables --------
-          iomode           1
            acell      1.0000000000E+00  1.0000000000E+00  1.0000000000E+00 Bohr
              amu      9.59400000E+01  3.20660000E+01
           bandpp          14
          chkprim           0
     densfor_pred           6
           diemac      1.20000000E+01
             ecut      2.00000000E+01 Hartree
-          fftalg         401
           istwfk        2    0    0    0    0
              ixc          11
              kpt      0.00000000E+00  0.00000000E+00  0.00000000E+00
                       3.33333333E-01  0.00000000E+00  0.00000000E+00
                       0.00000000E+00  3.33333333E-01  0.00000000E+00
                       3.33333333E-01  3.33333333E-01  0.00000000E+00
                      -3.33333333E-01  3.33333333E-01  0.00000000E+00
         kptrlatt        3    0    0      0    3    0      0    0    1
          kptrlen      2.56852226E+01
P           mkmem           1
            natom          54
            nband         280
            ngfft          75      75     120
             nkpt           5
    nblock_lobpcg           4
-          npband           5
-           npfft           5
-        np_spkpt           5
            nstep         100
             nsym           1
           ntypat           2
              occ      2.000000  2.000000  2.000000  2.000000  2.000000  2.000000
                       2.000000  2.000000  2.000000  2.000000  2.000000  2.000000
                       2.000000  2.000000  2.000000  2.000000  2.000000  2.000000
                       2.000000  2.000000  2.000000  2.000000  2.000000  2.000000
                       2.000000  2.000000  2.000000  2.000000  2.000000  2.000000
                       2.000000  2.000000  2.000000  2.000000  2.000000  2.000000
                       2.000000  2.000000  2.000000  2.000000  2.000000  2.000000
                       2.000000  2.000000  2.000000  2.000000  2.000000  2.000000
                       2.000000  2.000000  2.000000  2.000000  2.000000  2.000000
                       2.000000  2.000000  2.000000  2.000000  2.000000  2.000000
                       2.000000  2.000000  2.000000  2.000000  2.000000  2.000000
                       2.000000  2.000000  2.000000  2.000000  2.000000  2.000000
                       2.000000  2.000000  2.000000  2.000000  2.000000  2.000000
                       2.000000  2.000000  2.000000  2.000000  2.000000  2.000000
                       2.000000  2.000000  2.000000  2.000000  2.000000  2.000000
                       2.000000  2.000000  2.000000  2.000000  2.000000  2.000000
                       2.000000  2.000000  2.000000  2.000000  2.000000  2.000000
                       2.000000  2.000000  2.000000  2.000000  2.000000  2.000000
                       2.000000  2.000000  2.000000  2.000000  2.000000  2.000000
                       2.000000  2.000000  2.000000  2.000000  2.000000  2.000000
                       2.000000  2.000000  2.000000  2.000000  2.000000  2.000000
                       2.000000  2.000000  2.000000  2.000000  2.000000  2.000000
                       2.000000  2.000000  2.000000  2.000000  2.000000  2.000000
                       2.000000  2.000000  2.000000  2.000000  2.000000  2.000000
                       2.000000  2.000000  2.000000  2.000000  2.000000  2.000000
                       2.000000  2.000000  2.000000  2.000000  2.000000  2.000000
                       2.000000  2.000000  2.000000  2.000000  2.000000  2.000000
                       2.000000  2.000000  2.000000  2.000000  2.000000  2.000000
                       2.000000  2.000000  2.000000  2.000000  2.000000  2.000000
                       2.000000  2.000000  2.000000  2.000000  2.000000  2.000000
                       2.000000  2.000000  2.000000  2.000000  2.000000  2.000000
                       2.000000  2.000000  2.000000  2.000000  2.000000  2.000000
                       2.000000  2.000000  2.000000  2.000000  2.000000  2.000000
                       2.000000  2.000000  2.000000  2.000000  2.000000  2.000000
                       2.000000  2.000000  2.000000  2.000000  2.000000  2.000000
                       2.000000  2.000000  2.000000  2.000000  2.000000  2.000000
                       2.000000  2.000000  2.000000  2.000000  2.000000  2.000000
                       2.000000  2.000000  2.000000  2.000000  2.000000  2.000000
                       2.000000  2.000000  2.000000  2.000000  2.000000  2.000000
                       0.000000  0.000000  0.000000  0.000000  0.000000  0.000000
                       0.000000  0.000000  0.000000  0.000000  0.000000  0.000000
                       0.000000  0.000000  0.000000  0.000000  0.000000  0.000000
                       0.000000  0.000000  0.000000  0.000000  0.000000  0.000000
                       0.000000  0.000000  0.000000  0.000000  0.000000  0.000000
                       0.000000  0.000000  0.000000  0.000000  0.000000  0.000000
                       0.000000  0.000000  0.000000  0.000000  0.000000  0.000000
                       0.000000  0.000000  0.000000  0.000000
           ortalg          -2
        paral_kgb           1
           prtden           0
        prtposcar           1
            prtwf           0
            rprim      9.0560300050E+00 -1.5685504084E+01  0.0000000000E+00
                       9.0560300050E+00  1.5685504084E+01  0.0000000000E+00
                       0.0000000000E+00  0.0000000000E+00  2.5685222633E+01
          spgroup           1
           toldfe      1.00000000E-09 Hartree
           tolsym      1.00000000E-08
            typat      1  1  1  1  1  1  1  1  1  1  1  1  1  1  1  1  1  1  2  2
                       2  2  2  2  2  2  2  2  2  2  2  2  2  2  2  2  2  2  2  2
                       2  2  2  2  2  2  2  2  2  2  2  2  2  2
         wfoptalg         114
              wtk        0.11111    0.22222    0.22222    0.22222    0.22222
           xangst      1.5974148930E+00 -9.2226791849E-01  3.3980086037E+00
                       3.1948297860E+00 -3.6890716739E+00  3.3980086037E+00
                       4.7922446790E+00 -6.4558754293E+00  3.3980086037E+00
                       3.1948297860E+00  1.8445358369E+00  3.3980086037E+00
                       4.7922446790E+00 -9.2226791849E-01  3.3980086037E+00
                       6.3896595720E+00 -3.6890716739E+00  3.3980086037E+00
                       4.7922446790E+00  4.6113395923E+00  3.3980086037E+00
                       6.3896595720E+00  1.8445358369E+00  3.3980086037E+00
                       7.9870744650E+00 -9.2226791849E-01  3.3980086037E+00
                       1.5974148930E+00  9.2226791849E-01  1.0194025811E+01
                       3.1948297860E+00 -1.8445358369E+00  1.0194025811E+01
                       4.7922446790E+00 -4.6113395923E+00  1.0194025811E+01
                       3.1948297860E+00  3.6890716739E+00  1.0194025811E+01
                       4.7922446790E+00  9.2226791849E-01  1.0194025811E+01
                       6.3896595720E+00 -1.8445358369E+00  1.0194025811E+01
                       4.7922446790E+00  6.4558754293E+00  1.0194025811E+01
                       6.3896595720E+00  3.6890716739E+00  1.0194025811E+01
                       7.9870744650E+00  9.2226791849E-01  1.0194025811E+01
                       1.6004644689E+00 -9.2754993882E-01  8.6427346146E+00
                       3.1948297860E+00 -3.6890716739E+00  8.6340852357E+00
                       4.7922446790E+00 -6.4558754293E+00  8.6340852357E+00
                       3.1948297860E+00  1.8445358369E+00  8.6340852357E+00
                       4.7922446790E+00 -9.2226791849E-01  8.6340852357E+00
                       6.3896595720E+00 -3.6890716739E+00  8.6340852357E+00
                       4.7922446790E+00  4.6113395923E+00  8.6340852357E+00
                       6.3896595720E+00  1.8445358369E+00  8.6340852357E+00
                       7.9870744650E+00 -9.2226791849E-01  8.6340852357E+00
                       1.5974148930E+00  9.2226791849E-01  4.9579491792E+00
                       3.1948297860E+00 -1.8445358369E+00  4.9579491792E+00
                       4.7922446790E+00 -4.6113395923E+00  4.9579491792E+00
                       3.1948297860E+00  3.6890716739E+00  4.9579491792E+00
                       4.7922446790E+00  9.2226791849E-01  4.9579491792E+00
                       6.3896595720E+00 -1.8445358369E+00  4.9579491792E+00
                       4.7922446790E+00  6.4558754293E+00  4.9579491792E+00
                       6.3896595720E+00  3.6890716739E+00  4.9579491792E+00
                       7.9870744650E+00  9.2226791849E-01  4.9579491792E+00
                       1.5974148930E+00 -9.2226791849E-01  1.1753966387E+01
                       3.1948297860E+00 -3.6890716739E+00  1.1753966387E+01
                       4.7922446790E+00 -6.4558754293E+00  1.1753966387E+01
                       3.1948297860E+00  1.8445358369E+00  1.1753966387E+01
                       4.7922446790E+00 -9.2226791849E-01  1.1753966387E+01
                       6.3896595720E+00 -3.6890716739E+00  1.1753966387E+01
                       4.7922446790E+00  4.6113395923E+00  1.1753966387E+01
                       6.3896595720E+00  1.8445358369E+00  1.1753966387E+01
                       7.9870744650E+00 -9.2226791849E-01  1.1753966387E+01
                       1.5974148930E+00  9.2226791849E-01  1.8380680282E+00
                       3.1948297860E+00 -1.8445358369E+00  1.8380680282E+00
                       4.7922446790E+00 -4.6113395923E+00  1.8380680282E+00
                       3.1948297860E+00  3.6890716739E+00  1.8380680282E+00
                       4.7922446790E+00  9.2226791849E-01  1.8380680282E+00
                       6.3896595720E+00 -1.8445358369E+00  1.8380680282E+00
                       4.7922446790E+00  6.4558754293E+00  1.8380680282E+00
                       6.3896595720E+00  3.6890716739E+00  1.8380680282E+00
                       7.9870744650E+00  9.2226791849E-01  1.8380680282E+00
            xcart      3.0186766683E+00 -1.7428337871E+00  6.4213056582E+00
                       6.0373533367E+00 -6.9713351483E+00  6.4213056582E+00
                       9.0560300050E+00 -1.2199836509E+01  6.4213056582E+00
                       6.0373533367E+00  3.4856675741E+00  6.4213056582E+00
                       9.0560300050E+00 -1.7428337871E+00  6.4213056582E+00
                       1.2074706673E+01 -6.9713351483E+00  6.4213056582E+00
                       9.0560300050E+00  8.7141689353E+00  6.4213056582E+00
                       1.2074706673E+01  3.4856675741E+00  6.4213056582E+00
                       1.5093383342E+01 -1.7428337871E+00  6.4213056582E+00
                       3.0186766683E+00  1.7428337871E+00  1.9263916975E+01
                       6.0373533367E+00 -3.4856675741E+00  1.9263916975E+01
                       9.0560300050E+00 -8.7141689353E+00  1.9263916975E+01
                       6.0373533367E+00  6.9713351483E+00  1.9263916975E+01
                       9.0560300050E+00  1.7428337871E+00  1.9263916975E+01
                       1.2074706673E+01 -3.4856675741E+00  1.9263916975E+01
                       9.0560300050E+00  1.2199836509E+01  1.9263916975E+01
                       1.2074706673E+01  6.9713351483E+00  1.9263916975E+01
                       1.5093383342E+01  1.7428337871E+00  1.9263916975E+01
                       3.0244395315E+00 -1.7528153590E+00  1.6332401461E+01
                       6.0373533367E+00 -6.9713351483E+00  1.6316056503E+01
                       9.0560300050E+00 -1.2199836509E+01  1.6316056503E+01
                       6.0373533367E+00  3.4856675741E+00  1.6316056503E+01
                       9.0560300050E+00 -1.7428337871E+00  1.6316056503E+01
                       1.2074706673E+01 -6.9713351483E+00  1.6316056503E+01
                       9.0560300050E+00  8.7141689353E+00  1.6316056503E+01
                       1.2074706673E+01  3.4856675741E+00  1.6316056503E+01
                       1.5093383342E+01 -1.7428337871E+00  1.6316056503E+01
                       3.0186766683E+00  1.7428337871E+00  9.3691661295E+00
                       6.0373533367E+00 -3.4856675741E+00  9.3691661295E+00
                       9.0560300050E+00 -8.7141689353E+00  9.3691661295E+00
                       6.0373533367E+00  6.9713351483E+00  9.3691661295E+00
                       9.0560300050E+00  1.7428337871E+00  9.3691661295E+00
                       1.2074706673E+01 -3.4856675741E+00  9.3691661295E+00
                       9.0560300050E+00  1.2199836509E+01  9.3691661295E+00
                       1.2074706673E+01  6.9713351483E+00  9.3691661295E+00
                       1.5093383342E+01  1.7428337871E+00  9.3691661295E+00
                       3.0186766683E+00 -1.7428337871E+00  2.2211777446E+01
                       6.0373533367E+00 -6.9713351483E+00  2.2211777446E+01
                       9.0560300050E+00 -1.2199836509E+01  2.2211777446E+01
                       6.0373533367E+00  3.4856675741E+00  2.2211777446E+01
                       9.0560300050E+00 -1.7428337871E+00  2.2211777446E+01
                       1.2074706673E+01 -6.9713351483E+00  2.2211777446E+01
                       9.0560300050E+00  8.7141689353E+00  2.2211777446E+01
                       1.2074706673E+01  3.4856675741E+00  2.2211777446E+01
                       1.5093383342E+01 -1.7428337871E+00  2.2211777446E+01
                       3.0186766683E+00  1.7428337871E+00  3.4734451870E+00
                       6.0373533367E+00 -3.4856675741E+00  3.4734451870E+00
                       9.0560300050E+00 -8.7141689353E+00  3.4734451870E+00
                       6.0373533367E+00  6.9713351483E+00  3.4734451870E+00
                       9.0560300050E+00  1.7428337871E+00  3.4734451870E+00
                       1.2074706673E+01 -3.4856675741E+00  3.4734451870E+00
                       9.0560300050E+00  1.2199836509E+01  3.4734451870E+00
                       1.2074706673E+01  6.9713351483E+00  3.4734451870E+00
                       1.5093383342E+01  1.7428337871E+00  3.4734451870E+00
             xred      2.2222222222E-01  1.1111111111E-01  2.5000000000E-01
                       5.5555555556E-01  1.1111111111E-01  2.5000000000E-01
                       8.8888888889E-01  1.1111111111E-01  2.5000000000E-01
                       2.2222222222E-01  4.4444444444E-01  2.5000000000E-01
                       5.5555555556E-01  4.4444444444E-01  2.5000000000E-01
                       8.8888888889E-01  4.4444444444E-01  2.5000000000E-01
                       2.2222222222E-01  7.7777777778E-01  2.5000000000E-01
                       5.5555555556E-01  7.7777777778E-01  2.5000000000E-01
                       8.8888888889E-01  7.7777777778E-01  2.5000000000E-01
                       1.1111111111E-01  2.2222222222E-01  7.5000000000E-01
                       4.4444444444E-01  2.2222222222E-01  7.5000000000E-01
                       7.7777777778E-01  2.2222222222E-01  7.5000000000E-01
                       1.1111111111E-01  5.5555555556E-01  7.5000000000E-01
                       4.4444444444E-01  5.5555555556E-01  7.5000000000E-01
                       7.7777777778E-01  5.5555555556E-01  7.5000000000E-01
                       1.1111111111E-01  8.8888888889E-01  7.5000000000E-01
                       4.4444444444E-01  8.8888888889E-01  7.5000000000E-01
                       7.7777777778E-01  8.8888888889E-01  7.5000000000E-01
                       2.2285857868E-01  1.1111111111E-01  6.3586762296E-01
                       5.5555555556E-01  1.1111111111E-01  6.3523126650E-01
                       8.8888888889E-01  1.1111111111E-01  6.3523126650E-01
                       2.2222222222E-01  4.4444444444E-01  6.3523126650E-01
                       5.5555555556E-01  4.4444444444E-01  6.3523126650E-01
                       8.8888888889E-01  4.4444444444E-01  6.3523126650E-01
                       2.2222222222E-01  7.7777777778E-01  6.3523126650E-01
                       5.5555555556E-01  7.7777777778E-01  6.3523126650E-01
                       8.8888888889E-01  7.7777777778E-01  6.3523126650E-01
                       1.1111111111E-01  2.2222222222E-01  3.6476873350E-01
                       4.4444444444E-01  2.2222222222E-01  3.6476873350E-01
                       7.7777777778E-01  2.2222222222E-01  3.6476873350E-01
                       1.1111111111E-01  5.5555555556E-01  3.6476873350E-01
                       4.4444444444E-01  5.5555555556E-01  3.6476873350E-01
                       7.7777777778E-01  5.5555555556E-01  3.6476873350E-01
                       1.1111111111E-01  8.8888888889E-01  3.6476873350E-01
                       4.4444444444E-01  8.8888888889E-01  3.6476873350E-01
                       7.7777777778E-01  8.8888888889E-01  3.6476873350E-01
                       2.2222222222E-01  1.1111111111E-01  8.6476873350E-01
                       5.5555555556E-01  1.1111111111E-01  8.6476873350E-01
                       8.8888888889E-01  1.1111111111E-01  8.6476873350E-01
                       2.2222222222E-01  4.4444444444E-01  8.6476873350E-01
                       5.5555555556E-01  4.4444444444E-01  8.6476873350E-01
                       8.8888888889E-01  4.4444444444E-01  8.6476873350E-01
                       2.2222222222E-01  7.7777777778E-01  8.6476873350E-01
                       5.5555555556E-01  7.7777777778E-01  8.6476873350E-01
                       8.8888888889E-01  7.7777777778E-01  8.6476873350E-01
                       1.1111111111E-01  2.2222222222E-01  1.3523126650E-01
                       4.4444444444E-01  2.2222222222E-01  1.3523126650E-01
                       7.7777777778E-01  2.2222222222E-01  1.3523126650E-01
                       1.1111111111E-01  5.5555555556E-01  1.3523126650E-01
                       4.4444444444E-01  5.5555555556E-01  1.3523126650E-01
                       7.7777777778E-01  5.5555555556E-01  1.3523126650E-01
                       1.1111111111E-01  8.8888888889E-01  1.3523126650E-01
                       4.4444444444E-01  8.8888888889E-01  1.3523126650E-01
                       7.7777777778E-01  8.8888888889E-01  1.3523126650E-01
            znucl       42.00000   16.00000
 
================================================================================
 
 chkinp: Checking input parameters for consistency.
 
================================================================================
== DATASET  1 ==================================================================
-   mpi_nproc: 125, omp_nthreads: -1 (-1 if OMP is not activated)
 

--- !DatasetInfo
iteration_state: {dtset: 1, }
dimensions: {natom: 54, nkpt: 5, mband: 280, nsppol: 1, nspinor: 1, nspden: 1, mpw: 1253, }
cutoff_energies: {ecut:  20.0, pawecutdg:  -1.0, }
electrons: {nelect:   4.68000000E+02, charge:   0.00000000E+00, occopt:   1.00000000E+00, tsmear:   1.00000000E-02, }
meta: {optdriver: 0, ionmov: 0, optcell: 0, iscf: 7, paral_kgb: 1, }
...

 mkfilename: getden from: ../superc/superc_DEN
 
 Exchange-correlation functional for the present dataset will be:
  GGA: Perdew-Burke-Ernzerhof functional - ixc=11
 Citation for XC functional:
  J.P.Perdew, K.Burke, M.Ernzerhof, PRL 77, 3865 (1996)
 
 Real(R)+Recip(G) space primitive vectors, cartesian coordinates (Bohr,Bohr^-1):
 R(1)=  9.0560300-15.6855041  0.0000000  G(1)=  0.0552118 -0.0318766  0.0000000
 R(2)=  9.0560300 15.6855041  0.0000000  G(2)=  0.0552118  0.0318766  0.0000000
 R(3)=  0.0000000  0.0000000 25.6852226  G(3)=  0.0000000  0.0000000  0.0389329
 Unit cell volume ucvol=  7.2970893E+03 bohr^3
 Angles (23,13,12)=  9.00000000E+01  9.00000000E+01  1.20000000E+02 degrees
 
 getcut: wavevector=  0.0000  0.0000  0.0000  ngfft=  75  75 120
         ecut(hartree)=     20.000   => boxcut(ratio)=   2.02972
 
--- Pseudopotential description ------------------------------------------------
- pspini: atom type   1  psp file is mo.psp8
- pspatm: opening atomic psp file    mo.psp8
- Mo    ONCVPSP-3.2.3.1  r_core=   1.45541   1.45541   1.35488
- 42.00000  14.00000    170510                znucl, zion, pspdat
    8   11    2    4       600   0.00000      pspcod,pspxc,lmax,lloc,mmax,r2well
    5.99000000000000    3.00000000000000    0.00000000000000   rchrg,fchrg,qchrg
     nproj     2     2     2
     extension_switch     1
  pspatm : epsatm=   15.95693586
         --- l  ekb(1:nproj) -->
             0   13.833287    1.350687
             1    8.015347    1.134034
             2    2.765699    0.969071
 pspatm: atomic psp has been read  and splines computed
 
- pspini: atom type   2  psp file is s.psp8
- pspatm: opening atomic psp file    s.psp8
- S     ONCVPSP-3.2.3.1  r_core=   1.45376   1.45376   1.61851
- 16.00000   6.00000    170504                znucl, zion, pspdat
    8   11    2    4       600   0.00000      pspcod,pspxc,lmax,lloc,mmax,r2well
    5.99000000000000    6.00000000000000    0.00000000000000   rchrg,fchrg,qchrg
     nproj     2     2     2
     extension_switch     1
  pspatm : epsatm=    9.01821879
         --- l  ekb(1:nproj) -->
             0    6.763951    0.574108
             1    3.227080    0.887329
             2   -3.547662   -0.986524
 pspatm: atomic psp has been read  and splines computed
 
   2.86360178E+05                                ecore*ucvol(ha*bohr**3)
--------------------------------------------------------------------------------
 
_setup2: Arith. and geom. avg. npw (full set) are    1253.667    1253.665
 
================================================================================

--- !BeginCycle
iteration_state: {dtset: 1, }
solver: {iscf: 7, nstep: 100, nline: 4, wfoptalg: 114, }
tolerances: {toldfe: 1.00E-09, }
...
 
     iter   Etot(hartree)      deltaE(h)  residm     vres2
 ETOT  1  -1662.4573955482    -1.662E+03 4.597E-03 3.425E+02
 ETOT  2  -1662.6255863338    -1.682E-01 2.297E-04 4.892E+02
 ETOT  3  -1662.5574188969     6.817E-02 3.856E-02 5.052E+02
 ETOT  4  -1662.6826290986    -1.252E-01 4.227E-03 7.135E+01
 ETOT  5  -1662.5906318529     9.200E-02 4.193E-02 3.054E+00
 ETOT  6  -1662.7076806368    -1.170E-01 8.637E-05 2.345E+00
 ETOT  7  -1662.7083338679    -6.532E-04 4.170E-05 2.980E-01
 ETOT  8  -1662.7084485693    -1.147E-04 1.542E-05 8.232E-02
 ETOT  9  -1662.7084499533    -1.384E-06 1.981E-05 5.436E-02
 ETOT 10  -1662.7084606190    -1.067E-05 5.924E-06 1.874E-02
 ETOT 11  -1662.7084638454    -3.226E-06 4.079E-06 1.053E-02
 ETOT 12  -1662.7084647284    -8.830E-07 2.020E-06 4.230E-03
 ETOT 13  -1662.7084647985    -7.002E-08 1.702E-06 1.677E-03
 ETOT 14  -1662.7084648790    -8.051E-08 7.464E-07 1.132E-03
 ETOT 15  -1662.7084649079    -2.889E-08 6.944E-07 3.117E-04
 ETOT 16  -1662.7084649888    -8.098E-08 4.301E-07 8.286E-05
 ETOT 17  -1662.7084650005    -1.161E-08 3.606E-07 5.775E-05
 ETOT 18  -1662.7084649976     2.904E-09 2.469E-07 8.566E-06
 ETOT 19  -1662.7084650020    -4.493E-09 2.177E-07 3.868E-06
 ETOT 20  -1662.7084650033    -1.251E-09 1.560E-07 9.292E-07
 ETOT 21  -1662.7084650035    -1.844E-10 1.175E-07 5.734E-07
 ETOT 22  -1662.7084650036    -1.050E-10 1.115E-07 1.654E-07
 
 At SCF step   22, etot is converged : 
  for the second time, diff in etot=  1.050E-10 < toldfe=  1.000E-09
 
 Cartesian components of stress tensor (hartree/bohr^3)
  sigma(1 1)=  6.93094877E-04  sigma(3 2)=  3.74482590E-07
  sigma(2 2)=  6.93264689E-04  sigma(3 1)= -2.18663893E-07
  sigma(3 3)=  6.56620543E-04  sigma(2 1)=  4.93903830E-08
 

--- !ResultsGS
iteration_state: {dtset: 1, }
comment   : Summary of ground state results
lattice_vectors:
- [  9.0560300, -15.6855041,   0.0000000, ]
- [  9.0560300,  15.6855041,   0.0000000, ]
- [  0.0000000,   0.0000000,  25.6852226, ]
lattice_lengths: [  18.11206,   18.11206,   25.68522, ]
lattice_angles: [ 90.000,  90.000, 120.000, ] # degrees, (23, 13, 12)
lattice_volume:   7.2970893E+03
convergence: {deltae: -1.050E-10, res2:  1.654E-07, residm:  1.115E-07, diffor: null, }
etotal    :  -1.66270847E+03
entropy   :   0.00000000E+00
fermie    :   2.46288268E-01
cartesian_stress_tensor: # hartree/bohr^3
- [  6.93094877E-04,   4.93903830E-08,  -2.18663893E-07, ]
- [  4.93903830E-08,   6.93264689E-04,   3.74482590E-07, ]
- [ -2.18663893E-07,   3.74482590E-07,   6.56620543E-04, ]
pressure_GPa:  -2.0036E+01
xred      :
- [  2.2222E-01,   1.1111E-01,   2.5000E-01, Mo]
- [  5.5556E-01,   1.1111E-01,   2.5000E-01, Mo]
- [  8.8889E-01,   1.1111E-01,   2.5000E-01, Mo]
- [  2.2222E-01,   4.4444E-01,   2.5000E-01, Mo]
- [  5.5556E-01,   4.4444E-01,   2.5000E-01, Mo]
- [  8.8889E-01,   4.4444E-01,   2.5000E-01, Mo]
- [  2.2222E-01,   7.7778E-01,   2.5000E-01, Mo]
- [  5.5556E-01,   7.7778E-01,   2.5000E-01, Mo]
- [  8.8889E-01,   7.7778E-01,   2.5000E-01, Mo]
- [  1.1111E-01,   2.2222E-01,   7.5000E-01, Mo]
- [  4.4444E-01,   2.2222E-01,   7.5000E-01, Mo]
- [  7.7778E-01,   2.2222E-01,   7.5000E-01, Mo]
- [  1.1111E-01,   5.5556E-01,   7.5000E-01, Mo]
- [  4.4444E-01,   5.5556E-01,   7.5000E-01, Mo]
- [  7.7778E-01,   5.5556E-01,   7.5000E-01, Mo]
- [  1.1111E-01,   8.8889E-01,   7.5000E-01, Mo]
- [  4.4444E-01,   8.8889E-01,   7.5000E-01, Mo]
- [  7.7778E-01,   8.8889E-01,   7.5000E-01, Mo]
- [  2.2286E-01,   1.1111E-01,   6.3587E-01,  S]
- [  5.5556E-01,   1.1111E-01,   6.3523E-01,  S]
- [  8.8889E-01,   1.1111E-01,   6.3523E-01,  S]
- [  2.2222E-01,   4.4444E-01,   6.3523E-01,  S]
- [  5.5556E-01,   4.4444E-01,   6.3523E-01,  S]
- [  8.8889E-01,   4.4444E-01,   6.3523E-01,  S]
- [  2.2222E-01,   7.7778E-01,   6.3523E-01,  S]
- [  5.5556E-01,   7.7778E-01,   6.3523E-01,  S]
- [  8.8889E-01,   7.7778E-01,   6.3523E-01,  S]
- [  1.1111E-01,   2.2222E-01,   3.6477E-01,  S]
- [  4.4444E-01,   2.2222E-01,   3.6477E-01,  S]
- [  7.7778E-01,   2.2222E-01,   3.6477E-01,  S]
- [  1.1111E-01,   5.5556E-01,   3.6477E-01,  S]
- [  4.4444E-01,   5.5556E-01,   3.6477E-01,  S]
- [  7.7778E-01,   5.5556E-01,   3.6477E-01,  S]
- [  1.1111E-01,   8.8889E-01,   3.6477E-01,  S]
- [  4.4444E-01,   8.8889E-01,   3.6477E-01,  S]
- [  7.7778E-01,   8.8889E-01,   3.6477E-01,  S]
- [  2.2222E-01,   1.1111E-01,   8.6477E-01,  S]
- [  5.5556E-01,   1.1111E-01,   8.6477E-01,  S]
- [  8.8889E-01,   1.1111E-01,   8.6477E-01,  S]
- [  2.2222E-01,   4.4444E-01,   8.6477E-01,  S]
- [  5.5556E-01,   4.4444E-01,   8.6477E-01,  S]
- [  8.8889E-01,   4.4444E-01,   8.6477E-01,  S]
- [  2.2222E-01,   7.7778E-01,   8.6477E-01,  S]
- [  5.5556E-01,   7.7778E-01,   8.6477E-01,  S]
- [  8.8889E-01,   7.7778E-01,   8.6477E-01,  S]
- [  1.1111E-01,   2.2222E-01,   1.3523E-01,  S]
- [  4.4444E-01,   2.2222E-01,   1.3523E-01,  S]
- [  7.7778E-01,   2.2222E-01,   1.3523E-01,  S]
- [  1.1111E-01,   5.5556E-01,   1.3523E-01,  S]
- [  4.4444E-01,   5.5556E-01,   1.3523E-01,  S]
- [  7.7778E-01,   5.5556E-01,   1.3523E-01,  S]
- [  1.1111E-01,   8.8889E-01,   1.3523E-01,  S]
- [  4.4444E-01,   8.8889E-01,   1.3523E-01,  S]
- [  7.7778E-01,   8.8889E-01,   1.3523E-01,  S]
cartesian_forces: # hartree/bohr
- [  1.81639524E-07,  -1.96571573E-07,  -4.23058191E-06, ]
- [  4.78642586E-07,   6.66729482E-07,   6.36821482E-07, ]
- [  2.88506515E-07,   1.31547035E-07,   6.58227434E-07, ]
- [ -2.65432439E-07,   1.03372547E-07,   9.71879087E-07, ]
- [ -2.86921371E-07,  -7.56716537E-07,   3.03639630E-07, ]
- [ -2.48143673E-07,   4.37167080E-07,  -1.61350698E-06, ]
- [ -3.59639675E-07,   5.13460833E-07,   1.45935518E-06, ]
- [  6.97122397E-08,  -3.88784623E-08,   4.06106072E-07, ]
- [  1.44697187E-07,  -6.39793211E-07,   2.68349619E-07, ]
- [  9.73629615E-05,   3.04964013E-05,   4.12572853E-04, ]
- [  8.88515354E-04,  -6.25482712E-04,   1.13793628E-03, ]
- [  8.06006504E-06,  -1.24782756E-05,   3.12947080E-05, ]
- [ -2.39805150E-06,  -7.23730528E-06,   3.06248879E-05, ]
- [ -1.93154292E-05,   4.91037840E-05,   3.41367057E-05, ]
- [  7.36305979E-06,  -2.81855051E-06,   3.21779881E-05, ]
- [ -3.80660503E-04,  -4.44495488E-04,   7.71184360E-04, ]
- [ -2.61582417E-05,  -2.86274811E-05,   5.32921685E-05, ]
- [  2.41969511E-05,   1.60925067E-05,   1.51337389E-05, ]
- [ -6.64797091E-04,   1.14148140E-03,  -2.37268311E-03, ]
- [  3.05122303E-05,  -5.49583613E-05,  -2.48534077E-05, ]
- [  3.87821337E-05,  -8.37940977E-05,  -4.55655819E-05, ]
- [ -2.89426981E-05,  -4.18276554E-05,  -3.75119327E-05, ]
- [  2.04838026E-05,   1.37816321E-05,  -3.30139798E-05, ]
- [ -3.12583654E-06,   5.35549544E-06,   3.76990697E-05, ]
- [ -2.02327928E-05,  -1.90335628E-05,  -2.72300213E-05, ]
- [ -3.15572217E-06,   5.40804177E-06,   3.76350600E-05, ]
- [  5.70234846E-05,   1.72003344E-05,  -4.34254792E-05, ]
- [ -4.28996485E-07,  -4.55567841E-06,  -3.12462458E-05, ]
- [ -2.30978513E-06,   1.82708019E-06,  -3.57095046E-05, ]
- [  4.05973690E-07,  -2.12023855E-07,  -3.75053047E-05, ]
- [ -1.88775990E-07,  -6.48233261E-08,  -3.76773178E-05, ]
- [ -1.10302411E-06,   4.08448561E-08,  -3.79782431E-05, ]
- [  1.55015143E-07,  -3.67169378E-07,  -3.73600343E-05, ]
- [  2.84112984E-06,   2.52527751E-06,  -3.34845104E-05, ]
- [ -3.43553766E-07,   7.67372905E-07,  -3.85631085E-05, ]
- [  1.10586341E-06,  -2.66425669E-07,  -3.74186498E-05, ]
- [ -1.71133158E-05,   2.95533416E-05,   2.68295111E-04, ]
- [ -8.17731479E-06,  -6.05513309E-05,  -9.93781801E-06, ]
- [ -1.06946523E-05,   4.69192520E-06,  -5.11256009E-05, ]
- [ -3.78035564E-06,   9.04979474E-06,  -5.45696578E-05, ]
- [  5.21219897E-05,   5.27486430E-05,  -6.43433307E-06, ]
- [  1.19627303E-06,  -2.13237918E-06,  -5.18444407E-05, ]
- [ -6.47511285E-06,  -2.53797259E-05,  -3.40989654E-05, ]
- [  1.15697932E-06,  -2.18438329E-06,  -5.17519343E-05, ]
- [ -3.24383954E-05,   3.71884532E-05,  -2.71670278E-05, ]
- [  2.93786811E-08,  -2.43690142E-07,   3.79862063E-05, ]
- [  5.06194739E-07,  -3.41611799E-07,   3.77618148E-05, ]
- [ -2.43904289E-08,   5.73376975E-08,   3.74854873E-05, ]
- [  9.04985980E-08,   2.47948672E-08,   3.75124482E-05, ]
- [  1.76523493E-07,  -9.62817816E-08,   3.70615236E-05, ]
- [ -6.66719230E-08,  -1.04678870E-07,   3.74685088E-05, ]
- [ -8.73396151E-08,  -2.39738171E-07,   3.78944320E-05, ]
- [  3.46628471E-08,  -1.22933627E-07,   3.70060036E-05, ]
- [ -1.05535284E-07,   1.58244929E-09,   3.71365710E-05, ]
force_length_stats: {min:   4.13876156E-07, max:   2.71561413E-03, mean:   1.44479721E-04, }
...

 Integrated electronic density in atomic spheres:
 ------------------------------------------------
 Atom  Sphere_radius  Integrated_density
    1        2.00000         10.46136712
    2        2.00000         10.46136724
    3        2.00000         10.46136838
    4        2.00000         10.46136747
    5        2.00000         10.46136845
    6        2.00000         10.46136745
    7        2.00000         10.46137047
    8        2.00000         10.46136804
    9        2.00000         10.46136814
   10        2.00000         10.46170522
   11        2.00000         10.46272016
   12        2.00000         10.46137682
   13        2.00000         10.46137723
   14        2.00000         10.46137081
   15        2.00000         10.46137359
   16        2.00000         10.46220965
   17        2.00000         10.46137534
   18        2.00000         10.46135568
   19        2.00000          3.93215511
   20        2.00000          3.93338916
   21        2.00000          3.93332893
   22        2.00000          3.93333048
   23        2.00000          3.93338692
   24        2.00000          3.93328304
   25        2.00000          3.93336067
   26        2.00000          3.93328931
   27        2.00000          3.93335698
   28        2.00000          3.93329490
   29        2.00000          3.93329885
   30        2.00000          3.93329877
   31        2.00000          3.93329817
   32        2.00000          3.93329768
   33        2.00000          3.93329912
   34        2.00000          3.93329630
   35        2.00000          3.93329894
   36        2.00000          3.93329639
   37        2.00000          3.93338486
   38        2.00000          3.93333485
   39        2.00000          3.93327602
   40        2.00000          3.93325147
   41        2.00000          3.93335945
   42        2.00000          3.93328274
   43        2.00000          3.93328089
   44        2.00000          3.93327460
   45        2.00000          3.93333007
   46        2.00000          3.93329923
   47        2.00000          3.93329912
   48        2.00000          3.93330131
   49        2.00000          3.93330133
   50        2.00000          3.93330145
   51        2.00000          3.93330111
   52        2.00000          3.93329891
   53        2.00000          3.93330146
   54        2.00000          3.93330153
================================================================================
 
 ----iterations are completed or convergence reached----
 
 Mean square residual over all n,k,spin=   52.475E-11; max=  11.149E-08
 reduced coordinates (array xred) for   54 atoms
       0.222222222223      0.111111111110      0.250000000000
       0.555555555557      0.111111111110      0.250000000000
       0.888888888890      0.111111111110      0.250000000000
       0.222222222223      0.444444444443      0.250000000000
       0.555555555557      0.444444444443      0.250000000000
       0.888888888890      0.444444444443      0.250000000000
       0.222222222223      0.777777777777      0.250000000000
       0.555555555557      0.777777777777      0.250000000000
       0.888888888890      0.777777777777      0.250000000000
       0.111111111110      0.222222222223      0.750000000000
       0.444444444443      0.222222222223      0.750000000000
       0.777777777777      0.222222222223      0.750000000000
       0.111111111110      0.555555555557      0.750000000000
       0.444444444443      0.555555555557      0.750000000000
       0.777777777777      0.555555555557      0.750000000000
       0.111111111110      0.888888888890      0.750000000000
       0.444444444443      0.888888888890      0.750000000000
       0.777777777777      0.888888888890      0.750000000000
       0.222858578684      0.111111111110      0.635867622960
       0.555555555557      0.111111111110      0.635231266500
       0.888888888890      0.111111111110      0.635231266500
       0.222222222223      0.444444444443      0.635231266500
       0.555555555557      0.444444444443      0.635231266500
       0.888888888890      0.444444444443      0.635231266500
       0.222222222223      0.777777777777      0.635231266500
       0.555555555557      0.777777777777      0.635231266500
       0.888888888890      0.777777777777      0.635231266500
       0.111111111110      0.222222222223      0.364768733500
       0.444444444443      0.222222222223      0.364768733500
       0.777777777777      0.222222222223      0.364768733500
       0.111111111110      0.555555555557      0.364768733500
       0.444444444443      0.555555555557      0.364768733500
       0.777777777777      0.555555555557      0.364768733500
       0.111111111110      0.888888888890      0.364768733500
       0.444444444443      0.888888888890      0.364768733500
       0.777777777777      0.888888888890      0.364768733500
       0.222222222223      0.111111111110      0.864768733500
       0.555555555557      0.111111111110      0.864768733500
       0.888888888890      0.111111111110      0.864768733500
       0.222222222223      0.444444444443      0.864768733500
       0.555555555557      0.444444444443      0.864768733500
       0.888888888890      0.444444444443      0.864768733500
       0.222222222223      0.777777777777      0.864768733500
       0.555555555557      0.777777777777      0.864768733500
       0.888888888890      0.777777777777      0.864768733500
       0.111111111110      0.222222222223      0.135231266500
       0.444444444443      0.222222222223      0.135231266500
       0.777777777777      0.222222222223      0.135231266500
       0.111111111110      0.555555555557      0.135231266500
       0.444444444443      0.555555555557      0.135231266500
       0.777777777777      0.555555555557      0.135231266500
       0.111111111110      0.888888888890      0.135231266500
       0.444444444443      0.888888888890      0.135231266500
       0.777777777777      0.888888888890      0.135231266500
 rms dE/dt=  6.2512E-03; max dE/dt=  6.0943E-02; dE/dt below (all hartree)
    1      -0.000004804820      0.000001354946      0.000108376895
    2       0.000006046823     -0.000014876035     -0.000016643445
    3      -0.000000625905     -0.000004759550     -0.000017193261
    4       0.000003948651      0.000000698869     -0.000025249474
    5      -0.000009347675      0.000014384404     -0.000008085595
    6       0.000009027819     -0.000004693434      0.000041156743
    7       0.000011234237     -0.000004880429     -0.000037770406
    8      -0.000001317708     -0.000000104933     -0.000010717468
    9      -0.000011422424      0.000008641652     -0.000007179163
   10      -0.000403447037     -0.001360156773     -0.010597312115
   11      -0.017857509897      0.001764506486     -0.029228433171
   12      -0.000268796797      0.000122652407     -0.000804098086
   13      -0.000091880518      0.000135154163     -0.000786893606
   14       0.000945062148     -0.000595379943     -0.000877095430
   15      -0.000110967039     -0.000022553150     -0.000826785332
   16      -0.003524939417      0.010419325283     -0.019808328509
   17      -0.000212223214      0.000685842850     -0.001369107756
   18       0.000033214201     -0.000471630840     -0.000388999996
   19       0.023925057045     -0.011884372246      0.060942607458
   20      -0.001138445836      0.000585646482      0.000638078768
   21      -0.001665641391      0.000963057050      0.001170075573
   22      -0.000394058479      0.000918110357      0.000963215800
   23       0.000030593352     -0.000401757222      0.000847684879
   24       0.000112234752     -0.000055779421     -0.000968595541
   25      -0.000115398812      0.000481696360      0.000699122616
   26       0.000113329613     -0.000056332991     -0.000966951437
   27      -0.000246687035     -0.000786285748      0.001115106559
   28      -0.000067649671      0.000075259673      0.000802280237
   29       0.000049499594     -0.000007824635      0.000916920032
   30      -0.000007078774     -0.000000434254      0.000963045557
   31       0.000000616211      0.000002642903      0.000967463753
   32       0.000010553128      0.000009264902      0.000975193087
   33      -0.000007239622      0.000004271970      0.000959314256
   34       0.000013804330     -0.000065423053      0.000859770561
   35       0.000015071301     -0.000009008842      0.000990215484
   36      -0.000014270316     -0.000005919156      0.000960819808
   37       0.000618461198     -0.000308663803     -0.006891506212
   38      -0.000875800703      0.001023748712      0.000254968525
   39       0.000170369741      0.000023172435      0.001312885899
   40       0.000176109043     -0.000107799023      0.001401347267
   41       0.000355294189     -0.001299490803      0.000164980734
   42      -0.000044357490      0.000022530513      0.001331349460
   43      -0.000339531542      0.000456649166      0.000875552976
   44      -0.000044817356      0.000023702069      0.001328973410
   45       0.000877006152     -0.000289639997      0.000697504614
   46      -0.000004165020      0.000003472904     -0.000975970709
   47      -0.000010019031      0.000000690794     -0.000970207162
   48       0.000001043688     -0.000000761935     -0.000963109629
   49      -0.000000507201     -0.000001291923     -0.000963802127
   50      -0.000003185393     -0.000000171819     -0.000952220029
   51      -0.000001114721      0.000002162279     -0.000962673533
   52      -0.000003046027      0.000004467919     -0.000973613466
   53      -0.000002318747      0.000001530923     -0.000950793984
   54       0.000000903989      0.000000847464     -0.000954147636
 
 cartesian coordinates (angstrom) at end:
    1      1.59741489299321    -0.92226791849087     3.39800860373591
    2      3.19482978598643    -3.68907167390813     3.39800860373591
    3      4.79224467897964    -6.45587542932540     3.39800860373591
    4      3.19482978598643     1.84453583692640     3.39800860373591
    5      4.79224467897964    -0.92226791849087     3.39800860373591
    6      6.38965957197285    -3.68907167390813     3.39800860373591
    7      4.79224467897964     4.61133959234366     3.39800860373591
    8      6.38965957197285     1.84453583692640     3.39800860373591
    9      7.98707446496607    -0.92226791849087     3.39800860373591
   10      1.59741489299321     0.92226791849087    10.19402581120772
   11      3.19482978598643    -1.84453583692640    10.19402581120772
   12      4.79224467897964    -4.61133959234366    10.19402581120772
   13      3.19482978598643     3.68907167390814    10.19402581120772
   14      4.79224467897964     0.92226791849087    10.19402581120772
   15      6.38965957197285    -1.84453583692640    10.19402581120772
   16      4.79224467897964     6.45587542932540    10.19402581120772
   17      6.38965957197285     3.68907167390813    10.19402581120772
   18      7.98707446496607     0.92226791849087    10.19402581120772
   19      1.60046446885415    -0.92754993882352     8.64273461462516
   20      3.19482978598643    -3.68907167390813     8.63408523571622
   21      4.79224467897964    -6.45587542932540     8.63408523571622
   22      3.19482978598643     1.84453583692640     8.63408523571622
   23      4.79224467897964    -0.92226791849087     8.63408523571622
   24      6.38965957197285    -3.68907167390813     8.63408523571622
   25      4.79224467897964     4.61133959234366     8.63408523571622
   26      6.38965957197285     1.84453583692640     8.63408523571622
   27      7.98707446496607    -0.92226791849087     8.63408523571622
   28      1.59741489299321     0.92226791849087     4.95794917922740
   29      3.19482978598643    -1.84453583692640     4.95794917922740
   30      4.79224467897964    -4.61133959234366     4.95794917922740
   31      3.19482978598643     3.68907167390814     4.95794917922740
   32      4.79224467897964     0.92226791849087     4.95794917922740
   33      6.38965957197285    -1.84453583692640     4.95794917922740
   34      4.79224467897964     6.45587542932540     4.95794917922740
   35      6.38965957197285     3.68907167390813     4.95794917922740
   36      7.98707446496607     0.92226791849087     4.95794917922740
   37      1.59741489299321    -0.92226791849087    11.75396638669921
   38      3.19482978598643    -3.68907167390813    11.75396638669921
   39      4.79224467897964    -6.45587542932540    11.75396638669921
   40      3.19482978598643     1.84453583692640    11.75396638669921
   41      4.79224467897964    -0.92226791849087    11.75396638669921
   42      6.38965957197285    -3.68907167390813    11.75396638669921
   43      4.79224467897964     4.61133959234366    11.75396638669921
   44      6.38965957197285     1.84453583692640    11.75396638669921
   45      7.98707446496607    -0.92226791849087    11.75396638669921
   46      1.59741489299321     0.92226791849087     1.83806802824441
   47      3.19482978598643    -1.84453583692640     1.83806802824441
   48      4.79224467897964    -4.61133959234366     1.83806802824441
   49      3.19482978598643     3.68907167390814     1.83806802824441
   50      4.79224467897964     0.92226791849087     1.83806802824441
   51      6.38965957197285    -1.84453583692640     1.83806802824441
   52      4.79224467897964     6.45587542932540     1.83806802824441
   53      6.38965957197285     3.68907167390813     1.83806802824441
   54      7.98707446496607     0.92226791849087     1.83806802824441
 
 cartesian forces (hartree/bohr) at end:
    1      0.00000018163952    -0.00000019657157    -0.00000423058191
    2      0.00000047864259     0.00000066672948     0.00000063682148
    3      0.00000028850651     0.00000013154704     0.00000065822743
    4     -0.00000026543244     0.00000010337255     0.00000097187909
    5     -0.00000028692137    -0.00000075671654     0.00000030363963
    6     -0.00000024814367     0.00000043716708    -0.00000161350698
    7     -0.00000035963967     0.00000051346083     0.00000145935518
    8      0.00000006971224    -0.00000003887846     0.00000040610607
    9      0.00000014469719    -0.00000063979321     0.00000026834962
   10      0.00009736296153     0.00003049640129     0.00041257285262
   11      0.00088851535353    -0.00062548271194     0.00113793627742
   12      0.00000806006504    -0.00001247827561     0.00003129470802
   13     -0.00000239805150    -0.00000723730528     0.00003062488788
   14     -0.00001931542925     0.00004910378401     0.00003413670573
   15      0.00000736305979    -0.00000281855051     0.00003217798811
   16     -0.00038066050302    -0.00044449548791     0.00077118435953
   17     -0.00002615824173    -0.00002862748115     0.00005329216850
   18      0.00002419695112     0.00001609250672     0.00001513373889
   19     -0.00066479709106     0.00114148140279    -0.00237268311323
   20      0.00003051223027    -0.00005495836127    -0.00002485340774
   21      0.00003878213369    -0.00008379409766    -0.00004556558191
   22     -0.00002894269813    -0.00004182765536    -0.00003751193271
   23      0.00002048380259     0.00001378163207    -0.00003301397985
   24     -0.00000312583654     0.00000535549544     0.00003769906970
   25     -0.00002023279275    -0.00001903356278    -0.00002723002129
   26     -0.00000315572217     0.00000540804177     0.00003763505997
   27      0.00005702348463     0.00001720033442    -0.00004342547922
   28     -0.00000042899649    -0.00000455567841    -0.00003124624581
   29     -0.00000230978513     0.00000182708019    -0.00003570950458
   30      0.00000040597369    -0.00000021202385    -0.00003750530467
   31     -0.00000018877599    -0.00000006482333    -0.00003767731779
   32     -0.00000110302411     0.00000004084486    -0.00003797824313
   33      0.00000015501514    -0.00000036716938    -0.00003736003432
   34      0.00000284112984     0.00000252527751    -0.00003348451041
   35     -0.00000034355377     0.00000076737291    -0.00003856310850
   36      0.00000110586341    -0.00000026642567    -0.00003741864982
   37     -0.00001711331581     0.00002955334157     0.00026829511146
   38     -0.00000817731479    -0.00006055133092    -0.00000993781801
   39     -0.00001069465228     0.00000469192520    -0.00005112560093
   40     -0.00000378035564     0.00000904979474    -0.00005456965784
   41      0.00005212198974     0.00005274864298    -0.00000643433307
   42      0.00000119627303    -0.00000213237918    -0.00005184444074
   43     -0.00000647511285    -0.00002537972593    -0.00003409896543
   44      0.00000115697932    -0.00000218438329    -0.00005175193426
   45     -0.00003243839537     0.00003718845315    -0.00002716702780
   46      0.00000002937868    -0.00000024369014     0.00003798620632
   47      0.00000050619474    -0.00000034161180     0.00003776181476
   48     -0.00000002439043     0.00000005733770     0.00003748548728
   49      0.00000009049860     0.00000002479487     0.00003751244823
   50      0.00000017652349    -0.00000009628178     0.00003706152365
   51     -0.00000006667192    -0.00000010467887     0.00003746850879
   52     -0.00000008733962    -0.00000023973817     0.00003789443203
   53      0.00000003466285    -0.00000012293363     0.00003700600358
   54     -0.00000010553528     0.00000000158245     0.00003713657095
 frms,max,avg= 2.6216987E-04 2.3726831E-03   8.834E-09  2.194E-10  1.116E-08 h/b
 
 cartesian forces (eV/Angstrom) at end:
    1      0.00000934027908    -0.00001010811587    -0.00021754525013
    2      0.00002461278932     0.00003428460557     0.00003274667447
    3      0.00001483560024     0.00000676441997     0.00003384741270
    4     -0.00001364908363     0.00000531562965     0.00004997602781
    5     -0.00001475408886    -0.00003891192558     0.00001561377623
    6     -0.00001276005962     0.00002248003323    -0.00008296985787
    7     -0.00001849341407     0.00002640321543     0.00007504305428
    8      0.00000358474719    -0.00000199921074     0.00002088281207
    9      0.00000744062790    -0.00003289948691     0.00001379909109
   10      0.00500660436040     0.00156818787427     0.02121534729896
   11      0.04568929265639    -0.03216361153893     0.05851503116600
   12      0.00041446517381    -0.00064165867688     0.00160923845337
   13     -0.00012331275557    -0.00037215716956     0.00157479491971
   14     -0.00099323922341     0.00252501788427     0.00175537983939
   15      0.00037862372580    -0.00014493568223     0.00165465853804
   16     -0.01957434844108    -0.02285687506803     0.03965589086884
   17     -0.00134511075901    -0.00147208414464     0.00274039325636
   18      0.00124425714943     0.00082750989755     0.00077820807752
   19     -0.03418523802667     0.05869732882694    -0.12200826098340
   20      0.00156900183290    -0.00282607232615    -0.00127801350347
   21      0.00199425732936    -0.00430886538488    -0.00234307623252
   22     -0.00148829325203    -0.00215086433711    -0.00192894097430
   23      0.00105331939117     0.00070867995525    -0.00169764695807
   24     -0.00016073696405     0.00027539062509     0.00193856394429
   25     -0.00104041194738    -0.00097874506788    -0.00140022387559
   26     -0.00016227374503     0.00027809266577     0.00193527243227
   27      0.00293226523024     0.00088447668339    -0.00223302773656
   28     -0.00002205988437    -0.00023426238333    -0.00160674642638
   29     -0.00011877391710     0.00009395223289    -0.00183625640091
   30      0.00002087600473    -0.00001090270406    -0.00192860014699
   31     -0.00000970725090    -0.00000333334917    -0.00193744541636
   32     -0.00005671977556     0.00000210032677    -0.00195291961835
   33      0.00000797119846    -0.00001888060698    -0.00192113004542
   34      0.00014609675833     0.00012985497969    -0.00172184261003
   35     -0.00001766624347     0.00003945989803    -0.00198299460196
   36      0.00005686577836    -0.00001370015760    -0.00192414417538
   37     -0.00088000200681     0.00151969379763     0.01379628817553
   38     -0.00042049439785    -0.00311367436492    -0.00051102310553
   39     -0.00054994108524     0.00024126847392    -0.00262898388180
   40     -0.00019439368671     0.00046535911706    -0.00280608439361
   41      0.00268022025028     0.00271244405237    -0.00033086668180
   42      0.00006151482725    -0.00010965133719    -0.00266594810808
   43     -0.00033296366216    -0.00130507787033    -0.00175343915496
   44      0.00005949426381    -0.00011232549582    -0.00266119123403
   45     -0.00166804921681     0.00191230698815    -0.00139698462034
   46      0.00000151071240    -0.00001253104989     0.00195332910190
   47      0.00002602957787    -0.00001756638350     0.00194179042502
   48     -0.00000125420617     0.00000294842271     0.00192758109585
   49      0.00000465362462     0.00000127500323     0.00192896748325
   50      0.00000907720222    -0.00000495100786     0.00190578001091
   51     -0.00000342840784    -0.00000538280348     0.00192670802655
   52     -0.00000449118321    -0.00001232783136     0.00194860987851
   53      0.00000178243511    -0.00000632150076     0.00190292505474
   54     -0.00000542684205     0.00000008137281     0.00190963909819
 frms,max,avg= 1.3481316E-02 1.2200826E-01   4.543E-07  1.128E-08  5.737E-07 e/A
 length scales=  1.000000000000  1.000000000000  1.000000000000 bohr
              =  0.529177208590  0.529177208590  0.529177208590 angstroms
 prteigrs : about to open file abo_EIG
 Fermi (or HOMO) energy (hartree) =   0.24629   Average Vxc (hartree)=  -0.37285
 Eigenvalues (hartree) for nkpt=   5  k points:
 kpt#   1, nband=280, wtk=  0.11111, kpt=  0.0000  0.0000  0.0000 (reduced coord)
  -2.00355   -2.00346   -2.00346   -2.00345   -2.00344   -2.00344   -2.00344   -2.00338
  -2.00337   -2.00336   -2.00336   -2.00336   -2.00335   -2.00335   -2.00325   -2.00325
  -2.00325   -2.00325   -1.05722   -1.05718   -1.05718   -1.05718   -1.05709   -1.05707
  -1.05707   -1.05707   -1.05706   -1.05706   -1.05699   -1.05698   -1.05698   -1.05698
  -1.05697   -1.05697   -1.05573   -1.05573   -1.05556   -1.05556   -1.05416   -1.05395
  -1.05240   -1.05240   -1.05240   -1.05239   -1.05239   -1.05238   -1.05218   -1.05217
  -1.05217   -1.05217   -1.05216   -1.05216   -1.05109   -1.05108   -1.05108   -1.05108
  -1.04915   -1.04915   -1.04914   -1.04914   -1.04914   -1.04913   -1.04891   -1.04890
  -1.04890   -1.04890   -1.04890   -1.04888   -1.04635   -1.04635   -1.04632   -1.04632
  -0.28583   -0.28321   -0.23918   -0.23881   -0.23864   -0.23864   -0.23863   -0.23863
  -0.23862   -0.23681   -0.23665   -0.23665   -0.23665   -0.23664   -0.23664   -0.23461
  -0.21935   -0.21929   -0.21929   -0.21929   -0.21928   -0.21927   -0.21693   -0.21686
  -0.21686   -0.21686   -0.21685   -0.21685   -0.20832   -0.20820   -0.20819   -0.20819
  -0.20492   -0.20485   -0.20484   -0.20483    0.01928    0.03351    0.03355    0.03459
   0.03517    0.03520    0.03755    0.03762    0.03764    0.03767    0.03767    0.03768
   0.04269    0.04274    0.04276    0.04280    0.04281    0.04281    0.06437    0.06448
   0.06448    0.06450    0.07617    0.07618    0.07621    0.07622    0.07623    0.07624
   0.08188    0.08190    0.08194    0.08196    0.08197    0.08197    0.08201    0.08205
   0.08472    0.08474    0.08475    0.08478    0.08480    0.08481    0.08486    0.08490
   0.09338    0.09343    0.09344    0.09346    0.09348    0.09349    0.10112    0.10120
   0.10121    0.10122    0.12593    0.12610    0.12617    0.12618    0.12618    0.12618
   0.12618    0.12619    0.12619    0.12623    0.12667    0.12671    0.12677    0.12678
   0.12678    0.12679    0.13470    0.13472    0.13487    0.13487    0.14806    0.15390
   0.15390    0.15390    0.15395    0.16757    0.16758    0.16758    0.16760    0.16761
   0.16772    0.17482    0.17489    0.17513    0.17517    0.17820    0.17821    0.17822
   0.17822    0.17823    0.17831    0.17944    0.17945    0.17956    0.17956    0.17956
   0.17957    0.18049    0.18049    0.18058    0.18058    0.18058    0.18059    0.19075
   0.19451    0.19454    0.19454    0.19455    0.19456    0.19461    0.19820    0.19823
   0.19824    0.19824    0.19826    0.19829    0.22146    0.22897    0.22899    0.23098
   0.23100    0.24629    0.29062    0.29064    0.29070    0.29070    0.30951    0.30951
   0.30952    0.30955    0.30957    0.30960    0.31038    0.31039    0.31040    0.31041
   0.31045    0.31046    0.31200    0.31200    0.31202    0.31202    0.31206    0.31207
   0.32512    0.32513    0.32513    0.32516    0.32518    0.32521    0.33136    0.33142
   0.33157    0.33163    0.33585    0.33589    0.34017    0.34020    0.34173    0.34175
   0.34742    0.34743    0.34744    0.34746    0.34748    0.34755    0.35180    0.35183
 prteigrs : prtvol=0 or 1, do not print more k-points.
 

--- !EnergyTerms
iteration_state     : {dtset: 1, }
comment             : Components of total free energy in Hartree
kinetic             :  5.36525149897159E+02
hartree             :  6.24146393748412E+02
xc                  : -2.99825693627554E+02
Ewald energy        : -9.09484440659818E+02
psp_core            :  3.92430686932514E+01
local_psp           : -1.86349124084903E+03
non_local_psp       :  2.10178297793997E+02
total_energy        : -1.66270846500359E+03
total_energy_eV     : -4.52445982884840E+04
band_energy         : -1.70340197876855E+02
...

 
 Cartesian components of stress tensor (hartree/bohr^3)
  sigma(1 1)=  6.93094877E-04  sigma(3 2)=  3.74482590E-07
  sigma(2 2)=  6.93264689E-04  sigma(3 1)= -2.18663893E-07
  sigma(3 3)=  6.56620543E-04  sigma(2 1)=  4.93903830E-08
 
-Cartesian components of stress tensor (GPa)         [Pressure= -2.0036E+01 GPa]
- sigma(1 1)=  2.03915519E+01  sigma(3 2)=  1.10176563E-02
- sigma(2 2)=  2.03965479E+01  sigma(3 1)= -6.43331275E-03
- sigma(3 3)=  1.93184401E+01  sigma(2 1)=  1.45311499E-03
 
== END DATASET(S) ==============================================================
================================================================================
  
 -outvars: echo values of variables after computation  --------
-          iomode           1
            acell      1.0000000000E+00  1.0000000000E+00  1.0000000000E+00 Bohr
              amu      9.59400000E+01  3.20660000E+01
           bandpp          14
          chkprim           0
     densfor_pred           6
           diemac      1.20000000E+01
             ecut      2.00000000E+01 Hartree
           etotal     -1.6627084650E+03
            fcart      1.8163952395E-07 -1.9657157337E-07 -4.2305819064E-06
                       4.7864258636E-07  6.6672948230E-07  6.3682148162E-07
                       2.8850651480E-07  1.3154703545E-07  6.5822743390E-07
                      -2.6543243860E-07  1.0337254721E-07  9.7187908662E-07
                      -2.8692137080E-07 -7.5671653695E-07  3.0363962976E-07
                      -2.4814367274E-07  4.3716708033E-07 -1.6135069796E-06
                      -3.5963967458E-07  5.1346083349E-07  1.4593551798E-06
                       6.9712239661E-08 -3.8878462262E-08  4.0610607156E-07
                       1.4469718715E-07 -6.3979321062E-07  2.6834961942E-07
                       9.7362961530E-05  3.0496401290E-05  4.1257285262E-04
                       8.8851535353E-04 -6.2548271194E-04  1.1379362774E-03
                       8.0600650398E-06 -1.2478275609E-05  3.1294708020E-05
                      -2.3980514961E-06 -7.2373052822E-06  3.0624887878E-05
                      -1.9315429249E-05  4.9103784009E-05  3.4136705733E-05
                       7.3630597898E-06 -2.8185505061E-06  3.2177988111E-05
                      -3.8066050302E-04 -4.4449548791E-04  7.7118435953E-04
                      -2.6158241726E-05 -2.8627481148E-05  5.3292168502E-05
                       2.4196951118E-05  1.6092506721E-05  1.5133738890E-05
                      -6.6479709106E-04  1.1414814028E-03 -2.3726831132E-03
                       3.0512230267E-05 -5.4958361270E-05 -2.4853407742E-05
                       3.8782133690E-05 -8.3794097657E-05 -4.5565581913E-05
                      -2.8942698127E-05 -4.1827655360E-05 -3.7511932710E-05
                       2.0483802589E-05  1.3781632071E-05 -3.3013979850E-05
                      -3.1258365393E-06  5.3554954428E-06  3.7699069698E-05
                      -2.0232792751E-05 -1.9033562777E-05 -2.7230021292E-05
                      -3.1557221735E-06  5.4080417724E-06  3.7635059975E-05
                       5.7023484633E-05  1.7200334418E-05 -4.3425479219E-05
                      -4.2899648521E-07 -4.5556784148E-06 -3.1246245806E-05
                      -2.3097851336E-06  1.8270801881E-06 -3.5709504577E-05
                       4.0597368969E-07 -2.1202385475E-07 -3.7505304674E-05
                      -1.8877599021E-07 -6.4823326050E-08 -3.7677317791E-05
                      -1.1030241114E-06  4.0844856054E-08 -3.7978243134E-05
                       1.5501514254E-07 -3.6716937849E-07 -3.7360034315E-05
                       2.8411298431E-06  2.5252775099E-06 -3.3484510405E-05
                      -3.4355376613E-07  7.6737290538E-07 -3.8563108496E-05
                       1.1058634140E-06 -2.6642566930E-07 -3.7418649815E-05
                      -1.7113315806E-05  2.9553341568E-05  2.6829511146E-04
                      -8.1773147896E-06 -6.0551330920E-05 -9.9378180067E-06
                      -1.0694652278E-05  4.6919251961E-06 -5.1125600931E-05
                      -3.7803556419E-06  9.0497947412E-06 -5.4569657836E-05
                       5.2121989743E-05  5.2748642975E-05 -6.4343330714E-06
                       1.1962730282E-06 -2.1323791848E-06 -5.1844440744E-05
                      -6.4751128502E-06 -2.5379725925E-05 -3.4098965427E-05
                       1.1569793220E-06 -2.1843832947E-06 -5.1751934264E-05
                      -3.2438395375E-05  3.7188453155E-05 -2.7167027801E-05
                       2.9378681107E-08 -2.4369014208E-07  3.7986206322E-05
                       5.0619473929E-07 -3.4161179874E-07  3.7761814764E-05
                      -2.4390428863E-08  5.7337697524E-08  3.7485487283E-05
                       9.0498597978E-08  2.4794867236E-08  3.7512448228E-05
                       1.7652349308E-07 -9.6281781584E-08  3.7061523646E-05
                      -6.6671923008E-08 -1.0467887024E-07  3.7468508787E-05
                      -8.7339615091E-08 -2.3973817066E-07  3.7894432031E-05
                       3.4662847106E-08 -1.2293362747E-07  3.7006003583E-05
                      -1.0553528419E-07  1.5824492945E-09  3.7136570951E-05
-          fftalg         401
           istwfk        2    0    0    0    0
              ixc          11
              kpt      0.00000000E+00  0.00000000E+00  0.00000000E+00
                       3.33333333E-01  0.00000000E+00  0.00000000E+00
                       0.00000000E+00  3.33333333E-01  0.00000000E+00
                       3.33333333E-01  3.33333333E-01  0.00000000E+00
                      -3.33333333E-01  3.33333333E-01  0.00000000E+00
         kptrlatt        3    0    0      0    3    0      0    0    1
          kptrlen      2.56852226E+01
P           mkmem           1
            natom          54
            nband         280
            ngfft          75      75     120
             nkpt           5
    nblock_lobpcg           4
-          npband           5
-           npfft           5
-        np_spkpt           5
            nstep         100
             nsym           1
           ntypat           2
              occ      2.000000  2.000000  2.000000  2.000000  2.000000  2.000000
                       2.000000  2.000000  2.000000  2.000000  2.000000  2.000000
                       2.000000  2.000000  2.000000  2.000000  2.000000  2.000000
                       2.000000  2.000000  2.000000  2.000000  2.000000  2.000000
                       2.000000  2.000000  2.000000  2.000000  2.000000  2.000000
                       2.000000  2.000000  2.000000  2.000000  2.000000  2.000000
                       2.000000  2.000000  2.000000  2.000000  2.000000  2.000000
                       2.000000  2.000000  2.000000  2.000000  2.000000  2.000000
                       2.000000  2.000000  2.000000  2.000000  2.000000  2.000000
                       2.000000  2.000000  2.000000  2.000000  2.000000  2.000000
                       2.000000  2.000000  2.000000  2.000000  2.000000  2.000000
                       2.000000  2.000000  2.000000  2.000000  2.000000  2.000000
                       2.000000  2.000000  2.000000  2.000000  2.000000  2.000000
                       2.000000  2.000000  2.000000  2.000000  2.000000  2.000000
                       2.000000  2.000000  2.000000  2.000000  2.000000  2.000000
                       2.000000  2.000000  2.000000  2.000000  2.000000  2.000000
                       2.000000  2.000000  2.000000  2.000000  2.000000  2.000000
                       2.000000  2.000000  2.000000  2.000000  2.000000  2.000000
                       2.000000  2.000000  2.000000  2.000000  2.000000  2.000000
                       2.000000  2.000000  2.000000  2.000000  2.000000  2.000000
                       2.000000  2.000000  2.000000  2.000000  2.000000  2.000000
                       2.000000  2.000000  2.000000  2.000000  2.000000  2.000000
                       2.000000  2.000000  2.000000  2.000000  2.000000  2.000000
                       2.000000  2.000000  2.000000  2.000000  2.000000  2.000000
                       2.000000  2.000000  2.000000  2.000000  2.000000  2.000000
                       2.000000  2.000000  2.000000  2.000000  2.000000  2.000000
                       2.000000  2.000000  2.000000  2.000000  2.000000  2.000000
                       2.000000  2.000000  2.000000  2.000000  2.000000  2.000000
                       2.000000  2.000000  2.000000  2.000000  2.000000  2.000000
                       2.000000  2.000000  2.000000  2.000000  2.000000  2.000000
                       2.000000  2.000000  2.000000  2.000000  2.000000  2.000000
                       2.000000  2.000000  2.000000  2.000000  2.000000  2.000000
                       2.000000  2.000000  2.000000  2.000000  2.000000  2.000000
                       2.000000  2.000000  2.000000  2.000000  2.000000  2.000000
                       2.000000  2.000000  2.000000  2.000000  2.000000  2.000000
                       2.000000  2.000000  2.000000  2.000000  2.000000  2.000000
                       2.000000  2.000000  2.000000  2.000000  2.000000  2.000000
                       2.000000  2.000000  2.000000  2.000000  2.000000  2.000000
                       2.000000  2.000000  2.000000  2.000000  2.000000  2.000000
                       0.000000  0.000000  0.000000  0.000000  0.000000  0.000000
                       0.000000  0.000000  0.000000  0.000000  0.000000  0.000000
                       0.000000  0.000000  0.000000  0.000000  0.000000  0.000000
                       0.000000  0.000000  0.000000  0.000000  0.000000  0.000000
                       0.000000  0.000000  0.000000  0.000000  0.000000  0.000000
                       0.000000  0.000000  0.000000  0.000000  0.000000  0.000000
                       0.000000  0.000000  0.000000  0.000000  0.000000  0.000000
                       0.000000  0.000000  0.000000  0.000000
           ortalg          -2
        paral_kgb           1
           prtden           0
        prtposcar           1
            prtwf           0
            rprim      9.0560300050E+00 -1.5685504084E+01  0.0000000000E+00
                       9.0560300050E+00  1.5685504084E+01  0.0000000000E+00
                       0.0000000000E+00  0.0000000000E+00  2.5685222633E+01
          spgroup           1
           strten      6.9309487659E-04  6.9326468903E-04  6.5662054348E-04
                       3.7448258963E-07 -2.1866389258E-07  4.9390383025E-08
           toldfe      1.00000000E-09 Hartree
           tolsym      1.00000000E-08
            typat      1  1  1  1  1  1  1  1  1  1  1  1  1  1  1  1  1  1  2  2
                       2  2  2  2  2  2  2  2  2  2  2  2  2  2  2  2  2  2  2  2
                       2  2  2  2  2  2  2  2  2  2  2  2  2  2
         wfoptalg         114
              wtk        0.11111    0.22222    0.22222    0.22222    0.22222
           xangst      1.5974148930E+00 -9.2226791849E-01  3.3980086037E+00
                       3.1948297860E+00 -3.6890716739E+00  3.3980086037E+00
                       4.7922446790E+00 -6.4558754293E+00  3.3980086037E+00
                       3.1948297860E+00  1.8445358369E+00  3.3980086037E+00
                       4.7922446790E+00 -9.2226791849E-01  3.3980086037E+00
                       6.3896595720E+00 -3.6890716739E+00  3.3980086037E+00
                       4.7922446790E+00  4.6113395923E+00  3.3980086037E+00
                       6.3896595720E+00  1.8445358369E+00  3.3980086037E+00
                       7.9870744650E+00 -9.2226791849E-01  3.3980086037E+00
                       1.5974148930E+00  9.2226791849E-01  1.0194025811E+01
                       3.1948297860E+00 -1.8445358369E+00  1.0194025811E+01
                       4.7922446790E+00 -4.6113395923E+00  1.0194025811E+01
                       3.1948297860E+00  3.6890716739E+00  1.0194025811E+01
                       4.7922446790E+00  9.2226791849E-01  1.0194025811E+01
                       6.3896595720E+00 -1.8445358369E+00  1.0194025811E+01
                       4.7922446790E+00  6.4558754293E+00  1.0194025811E+01
                       6.3896595720E+00  3.6890716739E+00  1.0194025811E+01
                       7.9870744650E+00  9.2226791849E-01  1.0194025811E+01
                       1.6004644689E+00 -9.2754993882E-01  8.6427346146E+00
                       3.1948297860E+00 -3.6890716739E+00  8.6340852357E+00
                       4.7922446790E+00 -6.4558754293E+00  8.6340852357E+00
                       3.1948297860E+00  1.8445358369E+00  8.6340852357E+00
                       4.7922446790E+00 -9.2226791849E-01  8.6340852357E+00
                       6.3896595720E+00 -3.6890716739E+00  8.6340852357E+00
                       4.7922446790E+00  4.6113395923E+00  8.6340852357E+00
                       6.3896595720E+00  1.8445358369E+00  8.6340852357E+00
                       7.9870744650E+00 -9.2226791849E-01  8.6340852357E+00
                       1.5974148930E+00  9.2226791849E-01  4.9579491792E+00
                       3.1948297860E+00 -1.8445358369E+00  4.9579491792E+00
                       4.7922446790E+00 -4.6113395923E+00  4.9579491792E+00
                       3.1948297860E+00  3.6890716739E+00  4.9579491792E+00
                       4.7922446790E+00  9.2226791849E-01  4.9579491792E+00
                       6.3896595720E+00 -1.8445358369E+00  4.9579491792E+00
                       4.7922446790E+00  6.4558754293E+00  4.9579491792E+00
                       6.3896595720E+00  3.6890716739E+00  4.9579491792E+00
                       7.9870744650E+00  9.2226791849E-01  4.9579491792E+00
                       1.5974148930E+00 -9.2226791849E-01  1.1753966387E+01
                       3.1948297860E+00 -3.6890716739E+00  1.1753966387E+01
                       4.7922446790E+00 -6.4558754293E+00  1.1753966387E+01
                       3.1948297860E+00  1.8445358369E+00  1.1753966387E+01
                       4.7922446790E+00 -9.2226791849E-01  1.1753966387E+01
                       6.3896595720E+00 -3.6890716739E+00  1.1753966387E+01
                       4.7922446790E+00  4.6113395923E+00  1.1753966387E+01
                       6.3896595720E+00  1.8445358369E+00  1.1753966387E+01
                       7.9870744650E+00 -9.2226791849E-01  1.1753966387E+01
                       1.5974148930E+00  9.2226791849E-01  1.8380680282E+00
                       3.1948297860E+00 -1.8445358369E+00  1.8380680282E+00
                       4.7922446790E+00 -4.6113395923E+00  1.8380680282E+00
                       3.1948297860E+00  3.6890716739E+00  1.8380680282E+00
                       4.7922446790E+00  9.2226791849E-01  1.8380680282E+00
                       6.3896595720E+00 -1.8445358369E+00  1.8380680282E+00
                       4.7922446790E+00  6.4558754293E+00  1.8380680282E+00
                       6.3896595720E+00  3.6890716739E+00  1.8380680282E+00
                       7.9870744650E+00  9.2226791849E-01  1.8380680282E+00
            xcart      3.0186766683E+00 -1.7428337871E+00  6.4213056582E+00
                       6.0373533367E+00 -6.9713351483E+00  6.4213056582E+00
                       9.0560300050E+00 -1.2199836509E+01  6.4213056582E+00
                       6.0373533367E+00  3.4856675741E+00  6.4213056582E+00
                       9.0560300050E+00 -1.7428337871E+00  6.4213056582E+00
                       1.2074706673E+01 -6.9713351483E+00  6.4213056582E+00
                       9.0560300050E+00  8.7141689353E+00  6.4213056582E+00
                       1.2074706673E+01  3.4856675741E+00  6.4213056582E+00
                       1.5093383342E+01 -1.7428337871E+00  6.4213056582E+00
                       3.0186766683E+00  1.7428337871E+00  1.9263916975E+01
                       6.0373533367E+00 -3.4856675741E+00  1.9263916975E+01
                       9.0560300050E+00 -8.7141689353E+00  1.9263916975E+01
                       6.0373533367E+00  6.9713351483E+00  1.9263916975E+01
                       9.0560300050E+00  1.7428337871E+00  1.9263916975E+01
                       1.2074706673E+01 -3.4856675741E+00  1.9263916975E+01
                       9.0560300050E+00  1.2199836509E+01  1.9263916975E+01
                       1.2074706673E+01  6.9713351483E+00  1.9263916975E+01
                       1.5093383342E+01  1.7428337871E+00  1.9263916975E+01
                       3.0244395315E+00 -1.7528153590E+00  1.6332401461E+01
                       6.0373533367E+00 -6.9713351483E+00  1.6316056503E+01
                       9.0560300050E+00 -1.2199836509E+01  1.6316056503E+01
                       6.0373533367E+00  3.4856675741E+00  1.6316056503E+01
                       9.0560300050E+00 -1.7428337871E+00  1.6316056503E+01
                       1.2074706673E+01 -6.9713351483E+00  1.6316056503E+01
                       9.0560300050E+00  8.7141689353E+00  1.6316056503E+01
                       1.2074706673E+01  3.4856675741E+00  1.6316056503E+01
                       1.5093383342E+01 -1.7428337871E+00  1.6316056503E+01
                       3.0186766683E+00  1.7428337871E+00  9.3691661295E+00
                       6.0373533367E+00 -3.4856675741E+00  9.3691661295E+00
                       9.0560300050E+00 -8.7141689353E+00  9.3691661295E+00
                       6.0373533367E+00  6.9713351483E+00  9.3691661295E+00
                       9.0560300050E+00  1.7428337871E+00  9.3691661295E+00
                       1.2074706673E+01 -3.4856675741E+00  9.3691661295E+00
                       9.0560300050E+00  1.2199836509E+01  9.3691661295E+00
                       1.2074706673E+01  6.9713351483E+00  9.3691661295E+00
                       1.5093383342E+01  1.7428337871E+00  9.3691661295E+00
                       3.0186766683E+00 -1.7428337871E+00  2.2211777446E+01
                       6.0373533367E+00 -6.9713351483E+00  2.2211777446E+01
                       9.0560300050E+00 -1.2199836509E+01  2.2211777446E+01
                       6.0373533367E+00  3.4856675741E+00  2.2211777446E+01
                       9.0560300050E+00 -1.7428337871E+00  2.2211777446E+01
                       1.2074706673E+01 -6.9713351483E+00  2.2211777446E+01
                       9.0560300050E+00  8.7141689353E+00  2.2211777446E+01
                       1.2074706673E+01  3.4856675741E+00  2.2211777446E+01
                       1.5093383342E+01 -1.7428337871E+00  2.2211777446E+01
                       3.0186766683E+00  1.7428337871E+00  3.4734451870E+00
                       6.0373533367E+00 -3.4856675741E+00  3.4734451870E+00
                       9.0560300050E+00 -8.7141689353E+00  3.4734451870E+00
                       6.0373533367E+00  6.9713351483E+00  3.4734451870E+00
                       9.0560300050E+00  1.7428337871E+00  3.4734451870E+00
                       1.2074706673E+01 -3.4856675741E+00  3.4734451870E+00
                       9.0560300050E+00  1.2199836509E+01  3.4734451870E+00
                       1.2074706673E+01  6.9713351483E+00  3.4734451870E+00
                       1.5093383342E+01  1.7428337871E+00  3.4734451870E+00
             xred      2.2222222222E-01  1.1111111111E-01  2.5000000000E-01
                       5.5555555556E-01  1.1111111111E-01  2.5000000000E-01
                       8.8888888889E-01  1.1111111111E-01  2.5000000000E-01
                       2.2222222222E-01  4.4444444444E-01  2.5000000000E-01
                       5.5555555556E-01  4.4444444444E-01  2.5000000000E-01
                       8.8888888889E-01  4.4444444444E-01  2.5000000000E-01
                       2.2222222222E-01  7.7777777778E-01  2.5000000000E-01
                       5.5555555556E-01  7.7777777778E-01  2.5000000000E-01
                       8.8888888889E-01  7.7777777778E-01  2.5000000000E-01
                       1.1111111111E-01  2.2222222222E-01  7.5000000000E-01
                       4.4444444444E-01  2.2222222222E-01  7.5000000000E-01
                       7.7777777778E-01  2.2222222222E-01  7.5000000000E-01
                       1.1111111111E-01  5.5555555556E-01  7.5000000000E-01
                       4.4444444444E-01  5.5555555556E-01  7.5000000000E-01
                       7.7777777778E-01  5.5555555556E-01  7.5000000000E-01
                       1.1111111111E-01  8.8888888889E-01  7.5000000000E-01
                       4.4444444444E-01  8.8888888889E-01  7.5000000000E-01
                       7.7777777778E-01  8.8888888889E-01  7.5000000000E-01
                       2.2285857868E-01  1.1111111111E-01  6.3586762296E-01
                       5.5555555556E-01  1.1111111111E-01  6.3523126650E-01
                       8.8888888889E-01  1.1111111111E-01  6.3523126650E-01
                       2.2222222222E-01  4.4444444444E-01  6.3523126650E-01
                       5.5555555556E-01  4.4444444444E-01  6.3523126650E-01
                       8.8888888889E-01  4.4444444444E-01  6.3523126650E-01
                       2.2222222222E-01  7.7777777778E-01  6.3523126650E-01
                       5.5555555556E-01  7.7777777778E-01  6.3523126650E-01
                       8.8888888889E-01  7.7777777778E-01  6.3523126650E-01
                       1.1111111111E-01  2.2222222222E-01  3.6476873350E-01
                       4.4444444444E-01  2.2222222222E-01  3.6476873350E-01
                       7.7777777778E-01  2.2222222222E-01  3.6476873350E-01
                       1.1111111111E-01  5.5555555556E-01  3.6476873350E-01
                       4.4444444444E-01  5.5555555556E-01  3.6476873350E-01
                       7.7777777778E-01  5.5555555556E-01  3.6476873350E-01
                       1.1111111111E-01  8.8888888889E-01  3.6476873350E-01
                       4.4444444444E-01  8.8888888889E-01  3.6476873350E-01
                       7.7777777778E-01  8.8888888889E-01  3.6476873350E-01
                       2.2222222222E-01  1.1111111111E-01  8.6476873350E-01
                       5.5555555556E-01  1.1111111111E-01  8.6476873350E-01
                       8.8888888889E-01  1.1111111111E-01  8.6476873350E-01
                       2.2222222222E-01  4.4444444444E-01  8.6476873350E-01
                       5.5555555556E-01  4.4444444444E-01  8.6476873350E-01
                       8.8888888889E-01  4.4444444444E-01  8.6476873350E-01
                       2.2222222222E-01  7.7777777778E-01  8.6476873350E-01
                       5.5555555556E-01  7.7777777778E-01  8.6476873350E-01
                       8.8888888889E-01  7.7777777778E-01  8.6476873350E-01
                       1.1111111111E-01  2.2222222222E-01  1.3523126650E-01
                       4.4444444444E-01  2.2222222222E-01  1.3523126650E-01
                       7.7777777778E-01  2.2222222222E-01  1.3523126650E-01
                       1.1111111111E-01  5.5555555556E-01  1.3523126650E-01
                       4.4444444444E-01  5.5555555556E-01  1.3523126650E-01
                       7.7777777778E-01  5.5555555556E-01  1.3523126650E-01
                       1.1111111111E-01  8.8888888889E-01  1.3523126650E-01
                       4.4444444444E-01  8.8888888889E-01  1.3523126650E-01
                       7.7777777778E-01  8.8888888889E-01  1.3523126650E-01
            znucl       42.00000   16.00000
 
================================================================================


- Timing analysis has been suppressed with timopt=0



================================================================================

 Suggested references for the acknowledgment of ABINIT usage.

 The users of ABINIT have little formal obligations with respect to the ABINIT group
 (those specified in the GNU General Public License, http://www.gnu.org/copyleft/gpl.txt).
 However, it is common practice in the scientific literature,
 to acknowledge the efforts of people that have made the research possible.
 In this spirit, please find below suggested citations of work written by ABINIT developers,
 corresponding to implementations inside of ABINIT that you have used in the present run.
 Note also that it will be of great value to readers of publications presenting these results,
 to read papers enabling them to understand the theoretical formalism and details
 of the ABINIT implementation.
 For information on why they are suggested, see also https://docs.abinit.org/theory/acknowledgments.
-
- [1] Large scale ab initio calculations based on three levels of parallelization
- F. Bottin, S. Leroux, A. Knyazev, G. Zerah, Comput. Mat. Science 42, 329, (2008).
- Comment: in case LOBPCG algorithm is used (wfoptalg=4/14/114).
- Strong suggestion to cite this paper in your publications.
- This paper is also available at http://www.arxiv.org/abs/0707.3405
- DOI and bibtex: see https://docs.abinit.org/theory/bibliography/#bottin2008
-
- [2] The Abinit project: Impact, environment and recent developments.
- Computer Phys. Comm. 248, 107042 (2020).
- X.Gonze, B. Amadon, G. Antonius, F.Arnardi, L.Baguet, J.-M.Beuken,
- J.Bieder, F.Bottin, J.Bouchet, E.Bousquet, N.Brouwer, F.Bruneval,
- G.Brunin, T.Cavignac, J.-B. Charraud, Wei Chen, M.Cote, S.Cottenier,
- J.Denier, G.Geneste, Ph.Ghosez, M.Giantomassi, Y.Gillet, O.Gingras,
- D.R.Hamann, G.Hautier, Xu He, N.Helbig, N.Holzwarth, Y.Jia, F.Jollet,
- W.Lafargue-Dit-Hauret, K.Lejaeghere, M.A.L.Marques, A.Martin, C.Martins,
- H.P.C. Miranda, F.Naccarato, K. Persson, G.Petretto, V.Planes, Y.Pouillon,
- S.Prokhorenko, F.Ricci, G.-M.Rignanese, A.H.Romero, M.M.Schmitt, M.Torrent,
- M.J.van Setten, B.Van Troeye, M.J.Verstraete, G.Zerah and J.W.Zwanzig
- Comment: the fifth generic paper describing the ABINIT project.
- Note that a version of this paper, that is not formatted for Computer Phys. Comm. 
- is available at https://www.abinit.org/sites/default/files/ABINIT20.pdf .
- The licence allows the authors to put it on the Web.
- DOI and bibtex: see https://docs.abinit.org/theory/bibliography/#gonze2020
-
- [3] Optimized norm-conserving Vanderbilt pseudopotentials.
- D.R. Hamann, Phys. Rev. B 88, 085117 (2013).
- Comment: Some pseudopotential generated using the ONCVPSP code were used.
- DOI and bibtex: see https://docs.abinit.org/theory/bibliography/#hamann2013
-
- [4] ABINIT: Overview, and focus on selected capabilities
- J. Chem. Phys. 152, 124102 (2020).
- A. Romero, D.C. Allan, B. Amadon, G. Antonius, T. Applencourt, L.Baguet,
- J.Bieder, F.Bottin, J.Bouchet, E.Bousquet, F.Bruneval,
- G.Brunin, D.Caliste, M.Cote,
- J.Denier, C. Dreyer, Ph.Ghosez, M.Giantomassi, Y.Gillet, O.Gingras,
- D.R.Hamann, G.Hautier, F.Jollet, G. Jomard,
- A.Martin, 
- H.P.C. Miranda, F.Naccarato, G.Petretto, N.A. Pike, V.Planes,
- S.Prokhorenko, T. Rangel, F.Ricci, G.-M.Rignanese, M.Royo, M.Stengel, M.Torrent,
- M.J.van Setten, B.Van Troeye, M.J.Verstraete, J.Wiktor, J.W.Zwanziger, and X.Gonze.
- Comment: a global overview of ABINIT, with focus on selected capabilities .
- Note that a version of this paper, that is not formatted for J. Chem. Phys 
- is available at https://www.abinit.org/sites/default/files/ABINIT20_JPC.pdf .
- The licence allows the authors to put it on the Web.
- DOI and bibtex: see https://docs.abinit.org/theory/bibliography/#romero2020
-
- [5] Recent developments in the ABINIT software package.
- Computer Phys. Comm. 205, 106 (2016).
- X.Gonze, F.Jollet, F.Abreu Araujo, D.Adams, B.Amadon, T.Applencourt,
- C.Audouze, J.-M.Beuken, J.Bieder, A.Bokhanchuk, E.Bousquet, F.Bruneval
- D.Caliste, M.Cote, F.Dahm, F.Da Pieve, M.Delaveau, M.Di Gennaro,
- B.Dorado, C.Espejo, G.Geneste, L.Genovese, A.Gerossier, M.Giantomassi,
- Y.Gillet, D.R.Hamann, L.He, G.Jomard, J.Laflamme Janssen, S.Le Roux,
- A.Levitt, A.Lherbier, F.Liu, I.Lukacevic, A.Martin, C.Martins,
- M.J.T.Oliveira, S.Ponce, Y.Pouillon, T.Rangel, G.-M.Rignanese,
- A.H.Romero, B.Rousseau, O.Rubel, A.A.Shukri, M.Stankovski, M.Torrent,
- M.J.Van Setten, B.Van Troeye, M.J.Verstraete, D.Waroquier, J.Wiktor,
- B.Xu, A.Zhou, J.W.Zwanziger.
- Comment: the fourth generic paper describing the ABINIT project.
- Note that a version of this paper, that is not formatted for Computer Phys. Comm. 
- is available at https://www.abinit.org/sites/default/files/ABINIT16.pdf .
- The licence allows the authors to put it on the Web.
- DOI and bibtex: see https://docs.abinit.org/theory/bibliography/#gonze2016
-
- Proc.   0 individual time (sec): cpu=        264.9  wall=        268.2
 
================================================================================
 
 Calculation completed.
.Delivered   0 WARNINGs and   0 COMMENTs to log file.
+Overall time at end (sec) : cpu=      33189.5  wall=      33523.9
