  48
   1   1
    24.641220702840037    -0.000000000000000     0.000000000000002
     0.000000000000001    24.641220702840055    -0.000000000000000
    -0.000000000000000    -0.000000000000001    25.236319154796373
   1   2
    -3.017865491577872    -0.000000000000000     0.000000000000000
    -0.000000000000000    -0.450667320259029    -0.000000000000000
     0.000000000000000     0.000000000000000     1.406694381372926
   1   3
    -1.092466863088739     1.111629416457188     0.000000000000000
     1.111629416453885    -2.376065948748161    -0.000000000000000
    -0.000000000000000     0.000000000000000     1.406694381372925
   1   4
    -1.092466863088739    -1.111629416457188     0.000000000000000
    -1.111629416453885    -2.376065948748161    -0.000000000000000
     0.000000000000000     0.000000000000000     1.406694381372925
   1   5
     0.001094206478306     0.000000000000000    -0.000000000000000
    -0.000000000000000     0.001094206478306    -0.000000000000000
    -0.000000000000000    -0.000000000000000    -0.012981501983041
   1   6
     0.000714837379023     0.000000000000000    -0.000000000000000
    -0.000000000000000     0.000829767239895    -0.000000000000000
    -0.000000000000000     0.000000000000000    -0.011315856623542
   1   7
     0.000801034774677     0.000049766089585    -0.000000000000000
     0.000049766089584     0.000743569844241    -0.000000000000000
    -0.000000000000000    -0.000000000000000    -0.011315856623542
   1   8
     0.000801034774677    -0.000049766089585    -0.000000000000000
    -0.000049766089584     0.000743569844241    -0.000000000000000
    -0.000000000000000    -0.000000000000000    -0.011315856623542
   1   9
    -0.004650753089917    -0.007756715982094    -0.024239183142372
    -0.007756715982071    -0.013607437210483     0.013994498912164
    -0.024338646273324     0.014051923977636    -0.009202780957740
   1  10
    -0.004650753089917     0.007756715982094     0.024239183142372
     0.007756715982071    -0.013607437210483     0.013994498912164
     0.024338646273324     0.014051923977636    -0.009202780957740
   1  11
    -0.018085779270766    -0.000000000000000    -0.000000000000000
    -0.000000000000000    -0.000172411029635    -0.027988997824329
     0.000000000000000    -0.028103847955271    -0.009202780957740
   1  12
     0.014544915288240    -0.000000000000000    -0.000000000000000
    -0.000000000000000     0.014544915288240    -0.000000000000000
    -0.000000000000000    -0.000000000000000    -0.053125035108765
   1  13
    -0.004650753089917    -0.007756715982094     0.024239183142372
    -0.007756715982071    -0.013607437210483    -0.013994498912164
     0.024338646273324    -0.014051923977636    -0.009202780957740
   1  14
    -0.004650753089917     0.007756715982094    -0.024239183142372
     0.007756715982071    -0.013607437210483    -0.013994498912164
    -0.024338646273324    -0.014051923977636    -0.009202780957740
   1  15
    -0.018085779270766     0.000000000000000    -0.000000000000000
    -0.000000000000000    -0.000172411029635     0.027988997824329
     0.000000000000000     0.028103847955271    -0.009202780957740
   1  16
     0.014544915288240     0.000000000000000    -0.000000000000000
     0.000000000000000     0.014544915288240    -0.000000000000000
    -0.000000000000000    -0.000000000000000    -0.053125035108765
   1  17
    -0.024464047592960    -0.000000000000000     0.000000000000000
     0.000000000000000    -0.024464047592960    -0.000000000000000
     0.000000000000000     0.000000000000000     0.080485054161986
   1  18
     0.003307987479913    -0.000000000000000     0.000000000000000
    -0.000000000000000    -0.009279610969778     0.007593635581346
    -0.000000000000000    -0.024515718111075    -0.026831793158916
   1  19
    -0.006132711357355    -0.005450590015043    -0.006576281320537
    -0.005450590015027     0.000161087867491    -0.003796817790673
     0.021231234676178     0.012257859055538    -0.026831793158916
   1  20
    -0.006132711357355     0.005450590015043     0.006576281320537
     0.005450590015027     0.000161087867491    -0.003796817790673
    -0.021231234676178     0.012257859055538    -0.026831793158916
   1  21
     0.000186717802720    -0.000000000000000     0.000000000000000
     0.000000000000000     0.000186717802720    -0.000000000000000
     0.000000000000000     0.000000000000000     0.016979980124169
   1  22
     0.001646983483855    -0.000000000000000     0.000000000000000
    -0.000000000000000     0.002229251331038     0.003745814895607
    -0.000000000000000    -0.002670182133217     0.005229771926356
   1  23
     0.002083684369242     0.000252129373734    -0.003243970857474
     0.000252129373733     0.001792550445651    -0.001872907447803
     0.002312445560094     0.001335091066608     0.005229771926355
   1  24
     0.002083684369242    -0.000252129373734     0.003243970857475
    -0.000252129373733     0.001792550445651    -0.001872907447803
    -0.002312445560094     0.001335091066608     0.005229771926355
   1  25
    -4.232257907118809     1.507218590098545    -2.786860078006949
     1.507218590094066    -2.491871789679390     1.608994416228742
    -2.855989842912109     1.648906504610594    -4.677931693014652
   1  26
    -4.232257907118809    -1.507218590098546     2.786860078006947
    -1.507218590094066    -2.491871789679389     1.608994416228742
     2.855989842912109     1.648906504610594    -4.677931693014651
   1  27
    -1.621678730959678    -0.000000000000000    -0.000000000000000
     0.000000000000000    -5.102450965838521    -3.217988832457485
     0.000000000000000    -3.297813009221187    -4.677931693014653
   1  28
     0.403915780945678     0.000000000000000    -0.000000000000000
    -0.000000000000000     0.403915780945678    -0.000000000000000
    -0.000000000000000    -0.000000000000000    -0.647049014263118
   1  29
     0.000369417843540     0.000398753934391    -0.000096872408401
     0.000398753934390     0.000829859226261     0.000055929311067
    -0.000431489547949     0.000249120606661     0.005923977255441
   1  30
     0.000369417843540    -0.000398753934391     0.000096872408400
    -0.000398753934390     0.000829859226261     0.000055929311067
     0.000431489547949     0.000249120606661     0.005923977255441
   1  31
     0.001060079917622    -0.000000000000000    -0.000000000000000
    -0.000000000000000     0.000139197152180    -0.000111858622134
    -0.000000000000000    -0.000498241213322     0.005923977255441
   1  32
    -0.000172663774558     0.000000000000000    -0.000000000000000
    -0.000000000000000    -0.000172663774558    -0.000000000000000
    -0.000000000000000    -0.000000000000000     0.006410729802124
   1  33
    -4.232257907118807     1.507218590098545     2.786860078006948
     1.507218590094066    -2.491871789679389    -1.608994416228743
     2.855989842912109    -1.648906504610594    -4.677931693014652
   1  34
    -4.232257907118808    -1.507218590098545    -2.786860078006948
    -1.507218590094066    -2.491871789679390    -1.608994416228743
    -2.855989842912108    -1.648906504610593    -4.677931693014651
   1  35
    -1.621678730959678     0.000000000000000     0.000000000000000
    -0.000000000000000    -5.102450965838520     3.217988832457485
     0.000000000000000     3.297813009221187    -4.677931693014652
   1  36
     0.403915780945678    -0.000000000000000     0.000000000000000
    -0.000000000000000     0.403915780945678    -0.000000000000000
    -0.000000000000000    -0.000000000000000    -0.647049014263118
   1  37
     0.000369417843540     0.000398753934391     0.000096872408401
     0.000398753934390     0.000829859226261    -0.000055929311067
     0.000431489547949    -0.000249120606661     0.005923977255441
   1  38
     0.000369417843540    -0.000398753934391    -0.000096872408400
    -0.000398753934390     0.000829859226261    -0.000055929311067
    -0.000431489547949    -0.000249120606661     0.005923977255441
   1  39
     0.001060079917622    -0.000000000000000     0.000000000000000
     0.000000000000000     0.000139197152180     0.000111858622134
    -0.000000000000000     0.000498241213322     0.005923977255441
   1  40
    -0.000172663774558    -0.000000000000000     0.000000000000000
     0.000000000000000    -0.000172663774558    -0.000000000000000
     0.000000000000000     0.000000000000000     0.006410729802124
   1  41
     0.000186717802720     0.000000000000000    -0.000000000000000
     0.000000000000000     0.000186717802720    -0.000000000000000
    -0.000000000000000    -0.000000000000000     0.016979980124169
   1  42
     0.001646983483855     0.000000000000000    -0.000000000000000
     0.000000000000000     0.002229251331038    -0.003745814895607
    -0.000000000000000     0.002670182133217     0.005229771926355
   1  43
     0.002083684369242     0.000252129373734     0.003243970857475
     0.000252129373733     0.001792550445651     0.001872907447803
    -0.002312445560094    -0.001335091066608     0.005229771926355
   1  44
     0.002083684369242    -0.000252129373734    -0.003243970857475
    -0.000252129373733     0.001792550445651     0.001872907447803
     0.002312445560094    -0.001335091066608     0.005229771926355
   1  45
    -0.024464047592960    -0.000000000000000    -0.000000000000000
     0.000000000000000    -0.024464047592960    -0.000000000000000
     0.000000000000000     0.000000000000000     0.080485054161986
   1  46
     0.003307987479913     0.000000000000000    -0.000000000000000
    -0.000000000000000    -0.009279610969778    -0.007593635581346
    -0.000000000000000     0.024515718111075    -0.026831793158916
   1  47
    -0.006132711357355    -0.005450590015043     0.006576281320537
    -0.005450590015027     0.000161087867491     0.003796817790673
    -0.021231234676178    -0.012257859055538    -0.026831793158916
   1  48
    -0.006132711357355     0.005450590015043    -0.006576281320537
     0.005450590015027     0.000161087867491     0.003796817790673
     0.021231234676178    -0.012257859055538    -0.026831793158916
   2   1
    -3.017865491577872    -0.000000000000000     0.000000000000000
    -0.000000000000000    -0.450667320259029     0.000000000000000
     0.000000000000000     0.000000000000000     1.406694381372926
   2   2
    24.641220702840037    -0.000000000000000     0.000000000000002
     0.000000000000001    24.641220702840055     0.000000000000000
    -0.000000000000000    -0.000000000000001    25.236319154796373
   2   3
    -1.092466863088739    -1.111629416457188     0.000000000000000
    -1.111629416453885    -2.376065948748161     0.000000000000000
     0.000000000000000     0.000000000000000     1.406694381372925
   2   4
    -1.092466863088739     1.111629416457188     0.000000000000000
     1.111629416453885    -2.376065948748161     0.000000000000000
    -0.000000000000000     0.000000000000000     1.406694381372925
   2   5
     0.000714837379023     0.000000000000000    -0.000000000000000
    -0.000000000000000     0.000829767239895     0.000000000000000
    -0.000000000000000     0.000000000000000    -0.011315856623542
   2   6
     0.001094206478306     0.000000000000000    -0.000000000000000
     0.000000000000000     0.001094206478306     0.000000000000000
    -0.000000000000000    -0.000000000000000    -0.012981501983041
   2   7
     0.000801034774677    -0.000049766089585    -0.000000000000000
    -0.000049766089584     0.000743569844241     0.000000000000000
    -0.000000000000000    -0.000000000000000    -0.011315856623542
   2   8
     0.000801034774677     0.000049766089585    -0.000000000000000
     0.000049766089584     0.000743569844241     0.000000000000000
    -0.000000000000000    -0.000000000000000    -0.011315856623542
   2   9
    -0.004650753089917     0.007756715982094     0.024239183142372
     0.007756715982071    -0.013607437210483     0.013994498912164
     0.024338646273324     0.014051923977636    -0.009202780957740
   2  10
    -0.004650753089917    -0.007756715982094    -0.024239183142372
    -0.007756715982071    -0.013607437210483     0.013994498912164
    -0.024338646273324     0.014051923977636    -0.009202780957740
   2  11
     0.014544915288240    -0.000000000000000    -0.000000000000000
    -0.000000000000000     0.014544915288240     0.000000000000000
    -0.000000000000000    -0.000000000000000    -0.053125035108765
   2  12
    -0.018085779270766    -0.000000000000000    -0.000000000000000
    -0.000000000000000    -0.000172411029635    -0.027988997824329
     0.000000000000000    -0.028103847955271    -0.009202780957740
   2  13
    -0.004650753089917     0.007756715982094    -0.024239183142372
     0.007756715982071    -0.013607437210483    -0.013994498912164
    -0.024338646273324    -0.014051923977636    -0.009202780957740
   2  14
    -0.004650753089917    -0.007756715982094     0.024239183142372
    -0.007756715982071    -0.013607437210483    -0.013994498912164
     0.024338646273324    -0.014051923977636    -0.009202780957740
   2  15
     0.014544915288240     0.000000000000000    -0.000000000000000
     0.000000000000000     0.014544915288240     0.000000000000000
    -0.000000000000000    -0.000000000000000    -0.053125035108765
   2  16
    -0.018085779270766     0.000000000000000    -0.000000000000000
    -0.000000000000000    -0.000172411029635     0.027988997824329
     0.000000000000000     0.028103847955271    -0.009202780957740
   2  17
     0.003307987479913    -0.000000000000000     0.000000000000000
    -0.000000000000000    -0.009279610969778     0.007593635581346
    -0.000000000000000    -0.024515718111075    -0.026831793158916
   2  18
    -0.024464047592960    -0.000000000000000     0.000000000000000
     0.000000000000000    -0.024464047592960     0.000000000000000
     0.000000000000000     0.000000000000000     0.080485054161986
   2  19
    -0.006132711357355     0.005450590015043     0.006576281320537
     0.005450590015027     0.000161087867491    -0.003796817790673
    -0.021231234676178     0.012257859055538    -0.026831793158916
   2  20
    -0.006132711357355    -0.005450590015043    -0.006576281320537
    -0.005450590015027     0.000161087867491    -0.003796817790673
     0.021231234676178     0.012257859055538    -0.026831793158916
   2  21
     0.001646983483855    -0.000000000000000     0.000000000000000
     0.000000000000000     0.002229251331038     0.003745814895607
    -0.000000000000000    -0.002670182133217     0.005229771926356
   2  22
     0.000186717802720    -0.000000000000000     0.000000000000000
     0.000000000000000     0.000186717802720     0.000000000000000
     0.000000000000000     0.000000000000000     0.016979980124169
   2  23
     0.002083684369242    -0.000252129373734     0.003243970857475
    -0.000252129373733     0.001792550445651    -0.001872907447803
    -0.002312445560094     0.001335091066608     0.005229771926355
   2  24
     0.002083684369242     0.000252129373734    -0.003243970857474
     0.000252129373733     0.001792550445651    -0.001872907447803
     0.002312445560094     0.001335091066608     0.005229771926355
   2  25
    -4.232257907118809    -1.507218590098546     2.786860078006947
    -1.507218590094066    -2.491871789679389     1.608994416228742
     2.855989842912109     1.648906504610594    -4.677931693014651
   2  26
    -4.232257907118809     1.507218590098545    -2.786860078006949
     1.507218590094066    -2.491871789679390     1.608994416228742
    -2.855989842912109     1.648906504610594    -4.677931693014652
   2  27
     0.403915780945678     0.000000000000000    -0.000000000000000
    -0.000000000000000     0.403915780945678     0.000000000000000
    -0.000000000000000    -0.000000000000000    -0.647049014263118
   2  28
    -1.621678730959678    -0.000000000000000    -0.000000000000000
     0.000000000000000    -5.102450965838521    -3.217988832457485
     0.000000000000000    -3.297813009221187    -4.677931693014653
   2  29
     0.000369417843540    -0.000398753934391     0.000096872408400
    -0.000398753934390     0.000829859226261     0.000055929311067
     0.000431489547949     0.000249120606661     0.005923977255441
   2  30
     0.000369417843540     0.000398753934391    -0.000096872408401
     0.000398753934390     0.000829859226261     0.000055929311067
    -0.000431489547949     0.000249120606661     0.005923977255441
   2  31
    -0.000172663774558     0.000000000000000    -0.000000000000000
     0.000000000000000    -0.000172663774558     0.000000000000000
     0.000000000000000    -0.000000000000000     0.006410729802124
   2  32
     0.001060079917622    -0.000000000000000    -0.000000000000000
     0.000000000000000     0.000139197152180    -0.000111858622134
    -0.000000000000000    -0.000498241213322     0.005923977255441
   2  33
    -4.232257907118808    -1.507218590098545    -2.786860078006948
    -1.507218590094066    -2.491871789679390    -1.608994416228743
    -2.855989842912108    -1.648906504610593    -4.677931693014651
   2  34
    -4.232257907118807     1.507218590098545     2.786860078006948
     1.507218590094066    -2.491871789679389    -1.608994416228743
     2.855989842912109    -1.648906504610594    -4.677931693014652
   2  35
     0.403915780945678    -0.000000000000000     0.000000000000000
    -0.000000000000000     0.403915780945678     0.000000000000000
    -0.000000000000000    -0.000000000000000    -0.647049014263118
   2  36
    -1.621678730959678     0.000000000000000     0.000000000000000
    -0.000000000000000    -5.102450965838520     3.217988832457485
     0.000000000000000     3.297813009221187    -4.677931693014652
   2  37
     0.000369417843540    -0.000398753934391    -0.000096872408400
    -0.000398753934390     0.000829859226261    -0.000055929311067
    -0.000431489547949    -0.000249120606661     0.005923977255441
   2  38
     0.000369417843540     0.000398753934391     0.000096872408401
     0.000398753934390     0.000829859226261    -0.000055929311067
     0.000431489547949    -0.000249120606661     0.005923977255441
   2  39
    -0.000172663774558    -0.000000000000000     0.000000000000000
     0.000000000000000    -0.000172663774558     0.000000000000000
     0.000000000000000     0.000000000000000     0.006410729802124
   2  40
     0.001060079917622    -0.000000000000000     0.000000000000000
     0.000000000000000     0.000139197152180     0.000111858622134
    -0.000000000000000     0.000498241213322     0.005923977255441
   2  41
     0.001646983483855     0.000000000000000    -0.000000000000000
     0.000000000000000     0.002229251331038    -0.003745814895607
    -0.000000000000000     0.002670182133217     0.005229771926355
   2  42
     0.000186717802720     0.000000000000000    -0.000000000000000
     0.000000000000000     0.000186717802720     0.000000000000000
    -0.000000000000000    -0.000000000000000     0.016979980124169
   2  43
     0.002083684369242    -0.000252129373734    -0.003243970857475
    -0.000252129373733     0.001792550445651     0.001872907447803
     0.002312445560094    -0.001335091066608     0.005229771926355
   2  44
     0.002083684369242     0.000252129373734     0.003243970857475
     0.000252129373733     0.001792550445651     0.001872907447803
    -0.002312445560094    -0.001335091066608     0.005229771926355
   2  45
     0.003307987479913     0.000000000000000    -0.000000000000000
    -0.000000000000000    -0.009279610969778    -0.007593635581346
    -0.000000000000000     0.024515718111075    -0.026831793158916
   2  46
    -0.024464047592960    -0.000000000000000    -0.000000000000000
     0.000000000000000    -0.024464047592960     0.000000000000000
     0.000000000000000     0.000000000000000     0.080485054161986
   2  47
    -0.006132711357355     0.005450590015043    -0.006576281320537
     0.005450590015027     0.000161087867491     0.003796817790673
     0.021231234676178    -0.012257859055538    -0.026831793158916
   2  48
    -0.006132711357355    -0.005450590015043     0.006576281320537
    -0.005450590015027     0.000161087867491     0.003796817790673
    -0.021231234676178    -0.012257859055538    -0.026831793158916
   3   1
    -1.092466863092606     1.111629416456117    -0.000000000000000
     1.111629416459420    -2.376065948744295    -0.000000000000000
     0.000000000000000    -0.000000000000000     1.406694381372925
   3   2
    -1.092466863089744    -1.111629416453304    -0.000000000000000
    -1.111629416453304    -2.376065948741434    -0.000000000000000
    -0.000000000000000    -0.000000000000000     1.406694381372926
   3   3
    24.641220702894984    -0.000000000031722    -0.000000000000001
    -0.000000000031722    24.641220702785112    -0.000000000000002
    -0.000000000000000     0.000000000000001    25.236319154796373
   3   4
    -3.017865491584599     0.000000000003884    -0.000000000000000
     0.000000000000580    -0.450667320258024    -0.000000000000000
     0.000000000000000    -0.000000000000000     1.406694381372925
   3   5
     0.000801034774679     0.000049766089583     0.000000000000000
     0.000049766089584     0.000743569844239     0.000000000000000
     0.000000000000000     0.000000000000000    -0.011315856623542
   3   6
     0.000801034774679    -0.000049766089585     0.000000000000000
    -0.000049766089585     0.000743569844239     0.000000000000000
     0.000000000000000     0.000000000000000    -0.011315856623542
   3   7
     0.001094206478309    -0.000000000000001     0.000000000000000
    -0.000000000000001     0.001094206478304     0.000000000000000
    -0.000000000000000     0.000000000000000    -0.012981501983041
   3   8
     0.000714837379024    -0.000000000000001     0.000000000000000
    -0.000000000000001     0.000829767239893     0.000000000000000
     0.000000000000000     0.000000000000000    -0.011315856623542
   3   9
    -0.018085779270806     0.000000000000023     0.000000000000000
     0.000000000000000    -0.000172411029634    -0.027988997824329
     0.000000000000036    -0.028103847955208    -0.009202780957740
   3  10
     0.014544915288272    -0.000000000000019     0.000000000000000
    -0.000000000000019     0.014544915288207     0.000000000000000
    -0.000000000000000     0.000000000000000    -0.053125035108765
   3  11
    -0.004650753089918    -0.007756715982071    -0.024239183142372
    -0.007756715982071    -0.013607437210443     0.013994498912164
    -0.024338646273396     0.014051923977636    -0.009202780957740
   3  12
    -0.004650753089938     0.007756715982083     0.024239183142372
     0.007756715982106    -0.013607437210463     0.013994498912164
     0.024338646273360     0.014051923977573    -0.009202780957740
   3  13
    -0.018085779270806     0.000000000000023    -0.000000000000000
     0.000000000000000    -0.000172411029634     0.027988997824329
    -0.000000000000036     0.028103847955208    -0.009202780957740
   3  14
     0.014544915288272    -0.000000000000019     0.000000000000000
    -0.000000000000019     0.014544915288207     0.000000000000000
    -0.000000000000000     0.000000000000000    -0.053125035108765
   3  15
    -0.004650753089918    -0.007756715982071     0.024239183142372
    -0.007756715982071    -0.013607437210443    -0.013994498912164
     0.024338646273396    -0.014051923977636    -0.009202780957740
   3  16
    -0.004650753089938     0.007756715982083    -0.024239183142372
     0.007756715982106    -0.013607437210463    -0.013994498912164
    -0.024338646273360    -0.014051923977573    -0.009202780957740
   3  17
    -0.006132711357361    -0.005450590015023    -0.006576281320537
    -0.005450590015039     0.000161087867497    -0.003796817790673
     0.021231234676209     0.012257859055483    -0.026831793158916
   3  18
    -0.006132711357375     0.005450590015039     0.006576281320537
     0.005450590015039     0.000161087867483    -0.003796817790673
    -0.021231234676241     0.012257859055538    -0.026831793158916
   3  19
    -0.024464047593015     0.000000000000031    -0.000000000000000
     0.000000000000031    -0.024464047592905    -0.000000000000000
     0.000000000000000    -0.000000000000000     0.080485054161986
   3  20
     0.003307987479921    -0.000000000000004    -0.000000000000000
     0.000000000000012    -0.009279610969757     0.007593635581346
     0.000000000000032    -0.024515718111020    -0.026831793158916
   3  21
     0.002083684369247     0.000252129373731    -0.003243970857474
     0.000252129373731     0.001792550445647    -0.001872907447804
     0.002312445560097     0.001335091066602     0.005229771926355
   3  22
     0.002083684369247    -0.000252129373736     0.003243970857474
    -0.000252129373736     0.001792550445647    -0.001872907447803
    -0.002312445560101     0.001335091066608     0.005229771926356
   3  23
     0.000186717802721    -0.000000000000000    -0.000000000000000
    -0.000000000000000     0.000186717802720    -0.000000000000000
    -0.000000000000000    -0.000000000000000     0.016979980124169
   3  24
     0.001646983483859    -0.000000000000002     0.000000000000000
    -0.000000000000003     0.002229251331033     0.003745814895607
     0.000000000000003    -0.002670182133211     0.005229771926355
   3  25
    -1.621678730963294     0.000000000002087     0.000000000000001
     0.000000000006567    -5.102450965827146    -3.217988832457483
     0.000000000004244    -3.297813009213836    -4.677931693014651
   3  26
     0.403915780946578    -0.000000000000520     0.000000000000000
    -0.000000000000520     0.403915780944777     0.000000000000000
    -0.000000000000000     0.000000000000000    -0.647049014263118
   3  27
    -4.232257907130185     1.507218590100633    -2.786860078006949
     1.507218590100634    -2.491871789675774     1.608994416228743
    -2.855989842920597     1.648906504610593    -4.677931693014653
   3  28
    -4.232257907126304    -1.507218590089738     2.786860078006949
    -1.507218590094218    -2.491871789671894     1.608994416228743
     2.855989842916353     1.648906504603242    -4.677931693014652
   3  29
     0.001060079917624    -0.000000000000001    -0.000000000000000
    -0.000000000000000     0.000139197152179    -0.000111858622134
     0.000000000000001    -0.000498241213321     0.005923977255441
   3  30
    -0.000172663774559     0.000000000000000     0.000000000000000
     0.000000000000000    -0.000172663774558     0.000000000000000
    -0.000000000000000     0.000000000000000     0.006410729802124
   3  31
     0.000369417843540     0.000398753934389    -0.000096872408400
     0.000398753934389     0.000829859226259     0.000055929311067
    -0.000431489547950     0.000249120606661     0.005923977255441
   3  32
     0.000369417843541    -0.000398753934390     0.000096872408400
    -0.000398753934391     0.000829859226260     0.000055929311067
     0.000431489547949     0.000249120606660     0.005923977255441
   3  33
    -1.621678730963295     0.000000000002088    -0.000000000000001
     0.000000000006568    -5.102450965827145     3.217988832457484
    -0.000000000004244     3.297813009213835    -4.677931693014651
   3  34
     0.403915780946578    -0.000000000000520    -0.000000000000000
    -0.000000000000520     0.403915780944777    -0.000000000000000
    -0.000000000000000     0.000000000000000    -0.647049014263118
   3  35
    -4.232257907130185     1.507218590100633     2.786860078006950
     1.507218590100633    -2.491871789675774    -1.608994416228743
     2.855989842920597    -1.648906504610593    -4.677931693014652
   3  36
    -4.232257907126304    -1.507218590089738    -2.786860078006949
    -1.507218590094217    -2.491871789671893    -1.608994416228742
    -2.855989842916353    -1.648906504603242    -4.677931693014652
   3  37
     0.001060079917624    -0.000000000000001    -0.000000000000000
    -0.000000000000000     0.000139197152179     0.000111858622134
    -0.000000000000001     0.000498241213321     0.005923977255441
   3  38
    -0.000172663774559     0.000000000000000    -0.000000000000000
     0.000000000000000    -0.000172663774558    -0.000000000000000
     0.000000000000000    -0.000000000000000     0.006410729802124
   3  39
     0.000369417843540     0.000398753934389     0.000096872408400
     0.000398753934389     0.000829859226259    -0.000055929311067
     0.000431489547950    -0.000249120606661     0.005923977255441
   3  40
     0.000369417843541    -0.000398753934390    -0.000096872408400
    -0.000398753934391     0.000829859226260    -0.000055929311067
    -0.000431489547949    -0.000249120606660     0.005923977255441
   3  41
     0.002083684369247     0.000252129373731     0.003243970857475
     0.000252129373731     0.001792550445647     0.001872907447804
    -0.002312445560097    -0.001335091066602     0.005229771926355
   3  42
     0.002083684369247    -0.000252129373736    -0.003243970857474
    -0.000252129373736     0.001792550445647     0.001872907447803
     0.002312445560101    -0.001335091066608     0.005229771926355
   3  43
     0.000186717802721    -0.000000000000000     0.000000000000000
    -0.000000000000000     0.000186717802720     0.000000000000000
    -0.000000000000000     0.000000000000000     0.016979980124169
   3  44
     0.001646983483859    -0.000000000000002    -0.000000000000000
    -0.000000000000003     0.002229251331033    -0.003745814895607
    -0.000000000000003     0.002670182133211     0.005229771926355
   3  45
    -0.006132711357361    -0.005450590015023     0.006576281320537
    -0.005450590015039     0.000161087867497     0.003796817790673
    -0.021231234676209    -0.012257859055483    -0.026831793158916
   3  46
    -0.006132711357375     0.005450590015039    -0.006576281320537
     0.005450590015039     0.000161087867483     0.003796817790673
     0.021231234676241    -0.012257859055538    -0.026831793158916
   3  47
    -0.024464047593015     0.000000000000031     0.000000000000000
     0.000000000000031    -0.024464047592905     0.000000000000000