phonopy:
  version: "2.33.2"
  calculator: abinit
  frequency_unit_conversion_factor: 15.633302
  symmetry_tolerance: 1.00000e-04
  configuration:
    dim: "3 3 1"
    pm: ".TRUE."
    cell_filename: "lat.in"
    create_displacements: ".true."
    symmetry_tolerance: "0.0001"
    calculator: "abinit"

physical_unit:
  atomic_mass: "AMU"
  length: "au"

space_group:
  type: "P-3m1"
  number: 164
  Hall_symbol: "-P 3 2\""

supercell_matrix:
- [   3,   0,   0 ]
- [   0,   3,   0 ]
- [   0,   0,   1 ]

primitive_cell:
  lattice:
  - [     5.966748018700000,    -0.000004354272703,     0.000000000000000 ] # a
  - [    -2.983377780228435,     5.167352743042281,     0.000000000000000 ] # b
  - [     0.000000000000000,     0.000000000000000,    75.563023787000006 ] # c
  points:
  - symbol: Mo # 1
    coordinates: [  0.333333333330000,  0.666666666670000,  0.073459225746000 ]
    mass: 95.960000
  - symbol: Mo # 2
    coordinates: [  0.666666666670000,  0.333333333330000,  0.226540774250000 ]
    mass: 95.960000
  - symbol: S # 3
    coordinates: [  0.333333333330000,  0.666666666670000,  0.187326525260000 ]
    mass: 32.065000
  - symbol: S # 4
    coordinates: [  0.666666666670000,  0.333333333330000,  0.112673474740000 ]
    mass: 32.065000
  - symbol: S # 5
    coordinates: [  0.666666666670000,  0.333333333330000,  0.034217093731000 ]
    mass: 32.065000
  - symbol: S # 6
    coordinates: [  0.333333333330000,  0.666666666670000,  0.265782906270000 ]
    mass: 32.065000
  reciprocal_lattice: # without 2pi
  - [     0.167595550908461,     0.096761507779527,     0.000000000000000 ] # a*
  - [     0.000000141224485,     0.193522770953167,     0.000000000000000 ] # b*
  - [     0.000000000000000,     0.000000000000000,     0.013233986014361 ] # c*

unit_cell:
  lattice:
  - [     5.966748018700000,    -0.000004354272703,     0.000000000000000 ] # a
  - [    -2.983377780228435,     5.167352743042281,     0.000000000000000 ] # b
  - [     0.000000000000000,     0.000000000000000,    75.563023787000006 ] # c
  points:
  - symbol: Mo # 1
    coordinates: [  0.333333333330000,  0.666666666670000,  0.073459225746000 ]
    mass: 95.960000
    reduced_to: 1
  - symbol: Mo # 2
    coordinates: [  0.666666666670000,  0.333333333330000,  0.226540774250000 ]
    mass: 95.960000
    reduced_to: 2
  - symbol: S # 3
    coordinates: [  0.333333333330000,  0.666666666670000,  0.187326525260000 ]
    mass: 32.065000
    reduced_to: 3
  - symbol: S # 4
    coordinates: [  0.666666666670000,  0.333333333330000,  0.112673474740000 ]
    mass: 32.065000
    reduced_to: 4
  - symbol: S # 5
    coordinates: [  0.666666666670000,  0.333333333330000,  0.034217093731000 ]
    mass: 32.065000
    reduced_to: 5
  - symbol: S # 6
    coordinates: [  0.333333333330000,  0.666666666670000,  0.265782906270000 ]
    mass: 32.065000
    reduced_to: 6

supercell:
  lattice:
  - [    17.900244056100000,    -0.000013062818108,     0.000000000000000 ] # a
  - [    -8.950133340685305,    15.502058229126844,     0.000000000000000 ] # b
  - [     0.000000000000000,     0.000000000000000,    75.563023787000006 ] # c
  points:
  - symbol: Mo # 1
    coordinates: [  0.111111111110000,  0.222222222223333,  0.073459225746000 ]
    mass: 95.960000
    reduced_to: 1
  - symbol: Mo # 2
    coordinates: [  0.444444444443333,  0.222222222223333,  0.073459225746000 ]
    mass: 95.960000
    reduced_to: 1
  - symbol: Mo # 3
    coordinates: [  0.777777777776667,  0.222222222223333,  0.073459225746000 ]
    mass: 95.960000
    reduced_to: 1
  - symbol: Mo # 4
    coordinates: [  0.111111111110000,  0.555555555556667,  0.073459225746000 ]
    mass: 95.960000
    reduced_to: 1
  - symbol: Mo # 5
    coordinates: [  0.444444444443333,  0.555555555556667,  0.073459225746000 ]
    mass: 95.960000
    reduced_to: 1
  - symbol: Mo # 6
    coordinates: [  0.777777777776667,  0.555555555556667,  0.073459225746000 ]
    mass: 95.960000
    reduced_to: 1
  - symbol: Mo # 7
    coordinates: [  0.111111111110000,  0.888888888890000,  0.073459225746000 ]
    mass: 95.960000
    reduced_to: 1
  - symbol: Mo # 8
    coordinates: [  0.444444444443333,  0.888888888890000,  0.073459225746000 ]
    mass: 95.960000
    reduced_to: 1
  - symbol: Mo # 9
    coordinates: [  0.777777777776667,  0.888888888890000,  0.073459225746000 ]
    mass: 95.960000
    reduced_to: 1
  - symbol: Mo # 10
    coordinates: [  0.222222222223333,  0.111111111110000,  0.226540774250000 ]
    mass: 95.960000
    reduced_to: 10
  - symbol: Mo # 11
    coordinates: [  0.555555555556667,  0.111111111110000,  0.226540774250000 ]
    mass: 95.960000
    reduced_to: 10
  - symbol: Mo # 12
    coordinates: [  0.888888888890000,  0.111111111110000,  0.226540774250000 ]
    mass: 95.960000
    reduced_to: 10
  - symbol: Mo # 13
    coordinates: [  0.222222222223333,  0.444444444443333,  0.226540774250000 ]
    mass: 95.960000
    reduced_to: 10
  - symbol: Mo # 14
    coordinates: [  0.555555555556667,  0.444444444443333,  0.226540774250000 ]
    mass: 95.960000
    reduced_to: 10
  - symbol: Mo # 15
    coordinates: [  0.888888888890000,  0.444444444443333,  0.226540774250000 ]
    mass: 95.960000
    reduced_to: 10
  - symbol: Mo # 16
    coordinates: [  0.222222222223333,  0.777777777776667,  0.226540774250000 ]
    mass: 95.960000
    reduced_to: 10
  - symbol: Mo # 17
    coordinates: [  0.555555555556667,  0.777777777776667,  0.226540774250000 ]
    mass: 95.960000
    reduced_to: 10
  - symbol: Mo # 18
    coordinates: [  0.888888888890000,  0.777777777776667,  0.226540774250000 ]
    mass: 95.960000
    reduced_to: 10
  - symbol: S # 19
    coordinates: [  0.111111111110000,  0.222222222223333,  0.187326525260000 ]
    mass: 32.065000
    reduced_to: 19
  - symbol: S # 20
    coordinates: [  0.444444444443333,  0.222222222223333,  0.187326525260000 ]
    mass: 32.065000
    reduced_to: 19
  - symbol: S # 21
    coordinates: [  0.777777777776667,  0.222222222223333,  0.187326525260000 ]
    mass: 32.065000
    reduced_to: 19
  - symbol: S # 22
    coordinates: [  0.111111111110000,  0.555555555556667,  0.187326525260000 ]
    mass: 32.065000
    reduced_to: 19
  - symbol: S # 23
    coordinates: [  0.444444444443333,  0.555555555556667,  0.187326525260000 ]
    mass: 32.065000
    reduced_to: 19
  - symbol: S # 24
    coordinates: [  0.777777777776667,  0.555555555556667,  0.187326525260000 ]
    mass: 32.065000
    reduced_to: 19
  - symbol: S # 25
    coordinates: [  0.111111111110000,  0.888888888890000,  0.187326525260000 ]
    mass: 32.065000
    reduced_to: 19
  - symbol: S # 26
    coordinates: [  0.444444444443333,  0.888888888890000,  0.187326525260000 ]
    mass: 32.065000
    reduced_to: 19
  - symbol: S # 27
    coordinates: [  0.777777777776667,  0.888888888890000,  0.187326525260000 ]
    mass: 32.065000
    reduced_to: 19
  - symbol: S # 28
    coordinates: [  0.222222222223333,  0.111111111110000,  0.112673474740000 ]
    mass: 32.065000
    reduced_to: 28
  - symbol: S # 29
    coordinates: [  0.555555555556667,  0.111111111110000,  0.112673474740000 ]
    mass: 32.065000
    reduced_to: 28
  - symbol: S # 30
    coordinates: [  0.888888888890000,  0.111111111110000,  0.112673474740000 ]
    mass: 32.065000
    reduced_to: 28
  - symbol: S # 31
    coordinates: [  0.222222222223333,  0.444444444443333,  0.112673474740000 ]
    mass: 32.065000
    reduced_to: 28
  - symbol: S # 32
    coordinates: [  0.555555555556667,  0.444444444443333,  0.112673474740000 ]
    mass: 32.065000
    reduced_to: 28
  - symbol: S # 33
    coordinates: [  0.888888888890000,  0.444444444443333,  0.112673474740000 ]
    mass: 32.065000
    reduced_to: 28
  - symbol: S # 34
    coordinates: [  0.222222222223333,  0.777777777776667,  0.112673474740000 ]
    mass: 32.065000
    reduced_to: 28
  - symbol: S # 35
    coordinates: [  0.555555555556667,  0.777777777776667,  0.112673474740000 ]
    mass: 32.065000
    reduced_to: 28
  - symbol: S # 36
    coordinates: [  0.888888888890000,  0.777777777776667,  0.112673474740000 ]
    mass: 32.065000
    reduced_to: 28
  - symbol: S # 37
    coordinates: [  0.222222222223333,  0.111111111110000,  0.034217093731000 ]
    mass: 32.065000
    reduced_to: 37
  - symbol: S # 38
    coordinates: [  0.555555555556667,  0.111111111110000,  0.034217093731000 ]
    mass: 32.065000
    reduced_to: 37
  - symbol: S # 39
    coordinates: [  0.888888888890000,  0.111111111110000,  0.034217093731000 ]
    mass: 32.065000
    reduced_to: 37
  - symbol: S # 40
    coordinates: [  0.222222222223333,  0.444444444443333,  0.034217093731000 ]
    mass: 32.065000
    reduced_to: 37
  - symbol: S # 41
    coordinates: [  0.555555555556667,  0.444444444443333,  0.034217093731000 ]
    mass: 32.065000
    reduced_to: 37
  - symbol: S # 42
    coordinates: [  0.888888888890000,  0.444444444443333,  0.034217093731000 ]
    mass: 32.065000
    reduced_to: 37
  - symbol: S # 43
    coordinates: [  0.222222222223333,  0.777777777776667,  0.034217093731000 ]
    mass: 32.065000
    reduced_to: 37
  - symbol: S # 44
    coordinates: [  0.555555555556667,  0.777777777776667,  0.034217093731000 ]
    mass: 32.065000
    reduced_to: 37
  - symbol: S # 45
    coordinates: [  0.888888888890000,  0.777777777776667,  0.034217093731000 ]
    mass: 32.065000
    reduced_to: 37
  - symbol: S # 46
    coordinates: [  0.111111111110000,  0.222222222223333,  0.265782906270000 ]
    mass: 32.065000
    reduced_to: 46
  - symbol: S # 47
    coordinates: [  0.444444444443333,  0.222222222223333,  0.265782906270000 ]
    mass: 32.065000
    reduced_to: 46
  - symbol: S # 48
    coordinates: [  0.777777777776667,  0.222222222223333,  0.265782906270000 ]
    mass: 32.065000
    reduced_to: 46
  - symbol: S # 49
    coordinates: [  0.111111111110000,  0.555555555556667,  0.265782906270000 ]
    mass: 32.065000
    reduced_to: 46
  - symbol: S # 50
    coordinates: [  0.444444444443333,  0.555555555556667,  0.265782906270000 ]
    mass: 32.065000
    reduced_to: 46
  - symbol: S # 51
    coordinates: [  0.777777777776667,  0.555555555556667,  0.265782906270000 ]
    mass: 32.065000
    reduced_to: 46
  - symbol: S # 52
    coordinates: [  0.111111111110000,  0.888888888890000,  0.265782906270000 ]
    mass: 32.065000
    reduced_to: 46
  - symbol: S # 53
    coordinates: [  0.444444444443333,  0.888888888890000,  0.265782906270000 ]
    mass: 32.065000
    reduced_to: 46
  - symbol: S # 54
    coordinates: [  0.777777777776667,  0.888888888890000,  0.265782906270000 ]
    mass: 32.065000
    reduced_to: 46

displacements:
- atom:    1
  displacement:
    [   0.0046102393689166, -0.0000000033643518,  0.0194613898003529 ]
- atom:    1
  displacement:
    [  -0.0046102393689166,  0.0000000033643518, -0.0194613898003529 ]
- atom:   19
  displacement:
    [   0.0046102393689166, -0.0000000033643518,  0.0194613898003529 ]
- atom:   19
  displacement:
    [  -0.0046102393689166,  0.0000000033643518, -0.0194613898003529 ]
- atom:   37
  displacement:
    [   0.0046102393689166, -0.0000000033643518,  0.0194613898003529 ]
- atom:   37
  displacement:
    [  -0.0046102393689166,  0.0000000033643518, -0.0194613898003529 ]
