
.Version 10.0.9 of ABINIT, released Sep 2024.
.(MPI version, prepared for a x86_64_linux_intel2021.6 computer) 

.Copyright (C) 1998-2024 ABINIT group . 
 ABINIT comes with ABSOLUTELY NO WARRANTY.
 It is free software, and you are welcome to redistribute it
 under certain conditions (GNU General Public License,
 see ~abinit/COPYING or http://www.gnu.org/copyleft/gpl.txt).

 ABINIT is a project of the Universite Catholique de Louvain,
 Corning Inc. and other collaborators, see ~abinit/doc/developers/contributors.txt .
 Please read https://docs.abinit.org/theory/acknowledgments for suggested
 acknowledgments of the ABINIT effort.
 For more information, see https://www.abinit.org .

.Starting date : Mon  8 Dec 2025.
- ( at 15h47 )
  
- input  file    -> ab.in
- output file    -> ab.abo
- root for input  files -> abi
- root for output files -> abo
 
 DATASET    1 : space group P6_3/m m c (#194); Bravais hP (primitive hexag.)
================================================================================
 Values of the parameters that define the memory need for DATASET  1.
     intxc =       0    ionmov =       0      iscf =       7    lmnmax =       6
     lnmax =       6     mgfft =     108  mpssoang =       3    mqgrid =    5090
     natom =       6  nloc_mem =       1    nspden =       1   nspinor =       1
    nsppol =       1      nsym =      24    n1xccc =    2501    ntypat =       2
    occopt =       1   xclevel =       2
-    mband =          27        mffmem =           1         mkmem =           2
       mpw =         190          nfft =       48600          nkpt =           8
================================================================================
P This job should need less than                      21.365 Mbytes of memory.
  Rough estimation (10% accuracy) of disk space for files :
_ WF disk file :      1.254 Mbytes ; DEN or POT disk file :      0.373 Mbytes.
================================================================================
 
 DATASET    2 : space group P6_3/m m c (#194); Bravais hP (primitive hexag.)
================================================================================
 Values of the parameters that define the memory need for DATASET  2.
     intxc =       0    ionmov =       2      iscf =       7    lmnmax =       6
     lnmax =       6     mgfft =     120  mpssoang =       3    mqgrid =    5599
     natom =       6  nloc_mem =       1    nspden =       1   nspinor =       1
    nsppol =       1      nsym =      24    n1xccc =    2501    ntypat =       2
    occopt =       1   xclevel =       2
-    mband =          27        mffmem =           1         mkmem =           2
       mpw =         254          nfft =       54000          nkpt =           8
================================================================================
P This job should need less than                      23.709 Mbytes of memory.
  Rough estimation (10% accuracy) of disk space for files :
_ WF disk file :      1.676 Mbytes ; DEN or POT disk file :      0.414 Mbytes.
================================================================================
 
--------------------------------------------------------------------------------
------------- Echo of variables that govern the present computation ------------
--------------------------------------------------------------------------------
-
- outvars: echo of selected default values                                      
-   iomode0 =  0 , fftalg0 =512 , wfoptalg0 =  0
-
- outvars: echo of global parameters not present in the input file              
-  max_nthreads =    0
-
 -outvars: echo values of preprocessed input variables --------
-          iomode           1
            acell      1.8897261329E+00  1.8897261329E+00  1.8897261329E+00 Bohr
              amu      9.59400000E+01  3.20660000E+01
     densfor_pred           6
           diemac      1.20000000E+01
          dilatmx1     1.00000000E+00
          dilatmx2     1.10000000E+00
             ecut      2.00000000E+01 Hartree
           ecutsm      5.00000000E-01 Hartree
-          fftalg         401
           ionmov1          0
           ionmov2          2
           istwfk        2    0    0    0    0    0    0    0
              ixc          11
           jdtset        1    2
              kpt      0.00000000E+00  0.00000000E+00  0.00000000E+00
                       1.42857143E-01  0.00000000E+00  0.00000000E+00
                       2.85714286E-01  0.00000000E+00  0.00000000E+00
                       4.28571429E-01  0.00000000E+00  0.00000000E+00
                       1.42857143E-01  1.42857143E-01  0.00000000E+00
                       2.85714286E-01  1.42857143E-01  0.00000000E+00
                       4.28571429E-01  1.42857143E-01  0.00000000E+00
                       2.85714286E-01  2.85714286E-01  0.00000000E+00
         kptrlatt        7    0    0      0    7    0      0    0    1
          kptrlen      2.52813118E+01
P           mkmem           2
            natom           6
            nband          27
           ndtset           2
            ngfft1         30      30     108
            ngfft2         30      30     120
             nkpt           8
    nblock_lobpcg           3
-          npband           9
-           npfft           2
-        np_spkpt           7
            nstep         100
             nsym          24
            ntime1          1
            ntime2        200
           ntypat           2
              occ      2.000000  2.000000  2.000000  2.000000  2.000000  2.000000
                       2.000000  2.000000  2.000000  2.000000  2.000000  2.000000
                       2.000000  2.000000  2.000000  2.000000  2.000000  2.000000
                       2.000000  2.000000  2.000000  2.000000  2.000000  2.000000
                       2.000000  2.000000  0.000000
          optcell1          0
          optcell2          2
           ortalg          -2
        paral_kgb           1
           prtden           0
        prtposcar           1
            prtwf           0
            rprim      1.5961189561E+00 -2.7645591268E+00  0.0000000000E+00
                       1.5961189561E+00  2.7645591268E+00  0.0000000000E+00
                       0.0000000000E+00  0.0000000000E+00  1.3378294000E+01
          spgroup         194
           symrel      1  0  0   0  1  0   0  0  1      -1  0  0   0 -1  0   0  0 -1
                       0  1  0   1  0  0   0  0  1       0 -1  0  -1  0  0   0  0 -1
                       1  1  0  -1  0  0   0  0  1      -1 -1  0   1  0  0   0  0 -1
                      -1  0  0   1  1  0   0  0  1       1  0  0  -1 -1  0   0  0 -1
                       0  1  0  -1 -1  0   0  0  1       0 -1  0   1  1  0   0  0 -1
                      -1 -1  0   0  1  0   0  0  1       1  1  0   0 -1  0   0  0 -1
                      -1  0  0   0 -1  0   0  0  1       1  0  0   0  1  0   0  0 -1
                       0 -1  0  -1  0  0   0  0  1       0  1  0   1  0  0   0  0 -1
                      -1 -1  0   1  0  0   0  0  1       1  1  0  -1  0  0   0  0 -1
                       1  0  0  -1 -1  0   0  0  1      -1  0  0   1  1  0   0  0 -1
                       0 -1  0   1  1  0   0  0  1       0  1  0  -1 -1  0   0  0 -1
                       1  1  0   0 -1  0   0  0  1      -1 -1  0   0  1  0   0  0 -1
            tnons      0.0000000  0.0000000  0.0000000    -0.0000000 -0.0000000  0.0000000
                       0.0000000  0.0000000  0.5000000    -0.0000000 -0.0000000  0.5000000
                       0.0000000  0.0000000  0.5000000    -0.0000000 -0.0000000  0.5000000
                      -0.0000000  0.0000000  0.0000000     0.0000000 -0.0000000  0.0000000
                      -0.0000000  0.0000000  0.0000000     0.0000000 -0.0000000  0.0000000
                      -0.0000000 -0.0000000  0.5000000     0.0000000  0.0000000  0.5000000
                      -0.0000000 -0.0000000  0.5000000     0.0000000  0.0000000  0.5000000
                      -0.0000000 -0.0000000  0.0000000     0.0000000  0.0000000  0.0000000
                      -0.0000000 -0.0000000  0.0000000     0.0000000  0.0000000  0.0000000
                       0.0000000 -0.0000000  0.5000000    -0.0000000  0.0000000  0.5000000
                       0.0000000 -0.0000000  0.5000000    -0.0000000  0.0000000  0.5000000
                       0.0000000  0.0000000  0.0000000    -0.0000000 -0.0000000  0.0000000
           toldfe      1.00000000E-09 Hartree
           tolmxf1     5.00000000E-05
           tolmxf2     1.00000000E-05
           tolsym      1.00000000E-08
            typat      1  1  2  2  2  2
         wfoptalg         114
              wtk        0.02041    0.12245    0.12245    0.12245    0.12245    0.24490
                         0.12245    0.12245
           xangst      1.5961189561E+00 -9.2151970894E-01  3.3445735000E+00
                       1.5961189561E+00  9.2151970894E-01  1.0033720500E+01
                       1.5961189561E+00 -9.2151970894E-01  8.4695571221E+00
                       1.5961189561E+00  9.2151970894E-01  4.9087368779E+00
                       1.5961189561E+00 -9.2151970894E-01  1.1597883878E+01
                       1.5961189561E+00  9.2151970894E-01  1.7804101221E+00
            xcart      3.0162277025E+00 -1.7414198760E+00  6.3203279463E+00
                       3.0162277025E+00  1.7414198760E+00  1.8960983839E+01
                       3.0162277025E+00 -1.7414198760E+00  1.6005143428E+01
                       3.0162277025E+00  1.7414198760E+00  9.2761683576E+00
                       3.0162277025E+00 -1.7414198760E+00  2.1916824250E+01
                       3.0162277025E+00  1.7414198760E+00  3.3644875350E+00
             xred      6.6666666667E-01  3.3333333333E-01  2.5000000000E-01
                       3.3333333333E-01  6.6666666667E-01  7.5000000000E-01
                       6.6666666667E-01  3.3333333333E-01  6.3308200000E-01
                       3.3333333333E-01  6.6666666667E-01  3.6691800000E-01
                       6.6666666667E-01  3.3333333333E-01  8.6691800000E-01
                       3.3333333333E-01  6.6666666667E-01  1.3308200000E-01
            znucl       42.00000   16.00000
 
================================================================================
 
 chkinp: Checking input parameters for consistency, jdtset=   1.
 
 chkinp: Checking input parameters for consistency, jdtset=   2.
 
================================================================================
== DATASET  1 ==================================================================
-   mpi_nproc: 126, omp_nthreads: -1 (-1 if OMP is not activated)
-    --> not optimal distribution: autoparal keyword recommended in input file <--
 

--- !DatasetInfo
iteration_state: {dtset: 1, }
dimensions: {natom: 6, nkpt: 8, mband: 27, nsppol: 1, nspinor: 1, nspden: 1, mpw: 190, }
cutoff_energies: {ecut:  20.0, pawecutdg:  -1.0, }
electrons: {nelect:   5.20000000E+01, charge:   0.00000000E+00, occopt:   1.00000000E+00, tsmear:   1.00000000E-02, }
meta: {optdriver: 0, ionmov: 0, optcell: 0, iscf: 7, paral_kgb: 1, }
...

 Exchange-correlation functional for the present dataset will be:
  GGA: Perdew-Burke-Ernzerhof functional - ixc=11
 Citation for XC functional:
  J.P.Perdew, K.Burke, M.Ernzerhof, PRL 77, 3865 (1996)
 
 Real(R)+Recip(G) space primitive vectors, cartesian coordinates (Bohr,Bohr^-1):
 R(1)=  3.0162277 -5.2242596  0.0000000  G(1)=  0.1657700 -0.0957073  0.0000000
 R(2)=  3.0162277  5.2242596  0.0000000  G(2)=  0.1657700  0.0957073  0.0000000
 R(3)=  0.0000000  0.0000000 25.2813118  G(3)=  0.0000000  0.0000000  0.0395549
 Unit cell volume ucvol=  7.9674340E+02 bohr^3
 Angles (23,13,12)=  9.00000000E+01  9.00000000E+01  1.20000000E+02 degrees
 
 getcut: wavevector=  0.0000  0.0000  0.0000  ngfft=  30  30 108
         ecut(hartree)=     20.000   => boxcut(ratio)=   2.12199
 
--- Pseudopotential description ------------------------------------------------
- pspini: atom type   1  psp file is mo.psp8
- pspatm: opening atomic psp file    mo.psp8
- Mo    ONCVPSP-3.2.3.1  r_core=   1.45541   1.45541   1.35488
- 42.00000  14.00000    170510                znucl, zion, pspdat
    8   11    2    4       600   0.00000      pspcod,pspxc,lmax,lloc,mmax,r2well
    5.99000000000000    3.00000000000000    0.00000000000000   rchrg,fchrg,qchrg
     nproj     2     2     2
     extension_switch     1
  pspatm : epsatm=   15.95693586
         --- l  ekb(1:nproj) -->
             0   13.833287    1.350687
             1    8.015347    1.134034
             2    2.765699    0.969071
 pspatm: atomic psp has been read  and splines computed
 
- pspini: atom type   2  psp file is s.psp8
- pspatm: opening atomic psp file    s.psp8
- S     ONCVPSP-3.2.3.1  r_core=   1.45376   1.45376   1.61851
- 16.00000   6.00000    170504                znucl, zion, pspdat
    8   11    2    4       600   0.00000      pspcod,pspxc,lmax,lloc,mmax,r2well
    5.99000000000000    6.00000000000000    0.00000000000000   rchrg,fchrg,qchrg
     nproj     2     2     2
     extension_switch     1
  pspatm : epsatm=    9.01821879
         --- l  ekb(1:nproj) -->
             0    6.763951    0.574108
             1    3.227080    0.887329
             2   -3.547662   -0.986524
 pspatm: atomic psp has been read  and splines computed
 
   3.53531084E+03                                ecore*ucvol(ha*bohr**3)
--------------------------------------------------------------------------------
 
_setup2: Arith. and geom. avg. npw (full set) are     187.122     187.115
 
================================================================================

--- !BeginCycle
iteration_state: {dtset: 1, }
solver: {iscf: 7, nstep: 100, nline: 4, wfoptalg: 114, }
tolerances: {toldfe: 1.00E-09, }
...
 
     iter   Etot(hartree)      deltaE(h)  residm     vres2
 ETOT  1  -184.28612577905    -1.843E+02 2.910E-03 1.789E+03
 ETOT  2  -181.66169112139     2.624E+00 1.947E-04 1.953E+04
 ETOT  3  -184.72955321915    -3.068E+00 3.071E-04 1.201E+01
 ETOT  4  -184.73550401683    -5.951E-03 1.988E-05 1.621E+00
 ETOT  5  -184.73574599912    -2.420E-04 1.195E-05 2.352E-01
 ETOT  6  -184.73577404251    -2.804E-05 1.211E-05 9.064E-02
 ETOT  7  -184.73578209198    -8.049E-06 5.436E-06 2.201E-03
 ETOT  8  -184.73578260681    -5.148E-07 5.878E-06 1.126E-04
 ETOT  9  -184.73578266023    -5.343E-08 4.480E-06 2.546E-05
 ETOT 10  -184.73578266701    -6.774E-09 1.627E-06 2.112E-06
 ETOT 11  -184.73578266818    -1.173E-09 3.011E-06 9.577E-09
 ETOT 12  -184.73578266834    -1.612E-10 2.161E-06 4.987E-09
 ETOT 13  -184.73578266837    -3.257E-11 3.275E-06 3.298E-09
 
 At SCF step   13, etot is converged : 
  for the second time, diff in etot=  3.257E-11 < toldfe=  1.000E-09
 
 Cartesian components of stress tensor (hartree/bohr^3)
  sigma(1 1)= -2.99847498E-05  sigma(3 2)=  0.00000000E+00
  sigma(2 2)= -2.99847498E-05  sigma(3 1)=  0.00000000E+00
  sigma(3 3)= -1.77730433E-05  sigma(2 1)=  0.00000000E+00
 

--- !ResultsGS
iteration_state: {dtset: 1, }
comment   : Summary of ground state results
lattice_vectors:
- [  3.0162277,  -5.2242596,   0.0000000, ]
- [  3.0162277,   5.2242596,   0.0000000, ]
- [  0.0000000,   0.0000000,  25.2813118, ]
lattice_lengths: [   6.03246,    6.03246,   25.28131, ]
lattice_angles: [ 90.000,  90.000, 120.000, ] # degrees, (23, 13, 12)
lattice_volume:   7.9674340E+02
convergence: {deltae: -3.257E-11, res2:  3.298E-09, residm:  3.275E-06, diffor: null, }
etotal    :  -1.84735783E+02
entropy   :   0.00000000E+00
fermie    :   2.55084565E-01
cartesian_stress_tensor: # hartree/bohr^3
- [ -2.99847498E-05,   0.00000000E+00,   0.00000000E+00, ]
- [  0.00000000E+00,  -2.99847498E-05,   0.00000000E+00, ]
- [  0.00000000E+00,   0.00000000E+00,  -1.77730433E-05, ]
pressure_GPa:   7.6242E-01
xred      :
- [  6.6667E-01,   3.3333E-01,   2.5000E-01, Mo]
- [  3.3333E-01,   6.6667E-01,   7.5000E-01, Mo]
- [  6.6667E-01,   3.3333E-01,   6.3308E-01,  S]
- [  3.3333E-01,   6.6667E-01,   3.6692E-01,  S]
- [  6.6667E-01,   3.3333E-01,   8.6692E-01,  S]
- [  3.3333E-01,   6.6667E-01,   1.3308E-01,  S]
cartesian_forces: # hartree/bohr
- [  3.06872321E-29,   9.12708452E-30,   0.00000000E+00, ]
- [ -8.36924512E-30,  -5.36887325E-31,   1.66417716E-31, ]
- [  8.36924512E-30,   1.23484085E-29,   1.39413857E-03, ]
- [ -2.78974837E-30,  -6.97953522E-30,  -1.39413857E-03, ]
- [ -1.39487419E-29,  -2.63074789E-29,  -1.39413857E-03, ]
- [ -1.39487419E-29,   1.23484085E-29,   1.39413857E-03, ]
force_length_stats: {min:   8.38809911E-30, max:   1.39413857E-03, mean:   9.29425711E-04, }
...

 Integrated electronic density in atomic spheres:
 ------------------------------------------------
 Atom  Sphere_radius  Integrated_density
    1        2.00000         10.52972719
    2        2.00000         10.52972719
    3        2.00000          3.92570422
    4        2.00000          3.92570422
    5        2.00000          3.92570422
    6        2.00000          3.92570422
================================================================================
 
 ----iterations are completed or convergence reached----
 
 Mean square residual over all n,k,spin=   29.421E-09; max=  32.754E-07
 reduced coordinates (array xred) for    6 atoms
       0.666666666667      0.333333333333      0.250000000000
       0.333333333333      0.666666666667      0.750000000000
       0.666666666667      0.333333333333      0.633082000000
       0.333333333333      0.666666666667      0.366918000000
       0.666666666667      0.333333333333      0.866918000000
       0.333333333333      0.666666666667      0.133082000000
 rms dE/dt=  1.6615E-02; max dE/dt=  3.5246E-02; dE/dt below (all hartree)
    1      -0.000000000000     -0.000000000000      0.000000000000
    2       0.000000000000      0.000000000000     -0.000000000000
    3       0.000000000000     -0.000000000000     -0.035245651758
    4      -0.000000000000      0.000000000000      0.035245651758
    5      -0.000000000000      0.000000000000      0.035245651758
    6       0.000000000000      0.000000000000     -0.035245651758
 
 cartesian coordinates (angstrom) at end:
    1      1.59611895606522    -0.92151970894292     3.34457350000000
    2      1.59611895606522     0.92151970894292    10.03372050000000
    3      1.59611895606522    -0.92151970894292     8.46955712210800
    4      1.59611895606522     0.92151970894292     4.90873687789200
    5      1.59611895606522    -0.92151970894292    11.59788387789200
    6      1.59611895606522     0.92151970894292     1.78041012210800
 
 cartesian forces (hartree/bohr) at end:
    1      0.00000000000000     0.00000000000000     0.00000000000000
    2     -0.00000000000000    -0.00000000000000     0.00000000000000
    3      0.00000000000000     0.00000000000000     0.00139413856596
    4     -0.00000000000000    -0.00000000000000    -0.00139413856596
    5     -0.00000000000000    -0.00000000000000    -0.00139413856596
    6     -0.00000000000000     0.00000000000000     0.00139413856596
 frms,max,avg= 6.5720322E-04 1.3941386E-03   0.000E+00  0.000E+00  0.000E+00 h/b
 
 cartesian forces (eV/Angstrom) at end:
    1      0.00000000000000     0.00000000000000     0.00000000000000
    2     -0.00000000000000    -0.00000000000000     0.00000000000000
    3      0.00000000000000     0.00000000000000     0.07168948143736
    4     -0.00000000000000    -0.00000000000000    -0.07168948143736
    5     -0.00000000000000    -0.00000000000000    -0.07168948143736
    6     -0.00000000000000     0.00000000000000     0.07168948143736
 frms,max,avg= 3.3794746E-02 7.1689481E-02   0.000E+00  0.000E+00  0.000E+00 e/A
 length scales=  1.889726132886  1.889726132886  1.889726132886 bohr
              =  1.000000000000  1.000000000000  1.000000000000 angstroms
 prteigrs : about to open file abo_DS1_EIG
 Fermi (or HOMO) energy (hartree) =   0.25508   Average Vxc (hartree)=  -0.37764
 Eigenvalues (hartree) for nkpt=   8  k points:
 kpt#   1, nband= 27, wtk=  0.02041, kpt=  0.0000  0.0000  0.0000 (reduced coord)
  -1.99529   -1.99491   -1.04596   -1.04589   -1.03843   -1.03843   -1.03821   -1.03821
  -0.27806   -0.27470   -0.23218   -0.22642    0.02597    0.04404    0.14356    0.14356
   0.14373    0.14373    0.15293    0.18343    0.18343    0.18402    0.18402    0.20127
   0.22789    0.25508    0.33946
 prteigrs : prtvol=0 or 1, do not print more k-points.
 

--- !EnergyTerms
iteration_state     : {dtset: 1, }
comment             : Components of total free energy in Hartree
kinetic             :  5.95916226674274E+01
hartree             :  6.63714108864594E+01
xc                  : -3.33111993859058E+01
Ewald energy        : -1.04519535464359E+02
psp_core            :  4.43720126614016E+00
local_psp           : -2.00666600991129E+02
non_local_psp       :  2.33613183529918E+01
total_energy        : -1.84735782668375E+02
total_energy_eV     : -5.02691629486668E+03
band_energy         : -1.85058460312182E+01
...

 
 Cartesian components of stress tensor (hartree/bohr^3)
  sigma(1 1)= -2.99847498E-05  sigma(3 2)=  0.00000000E+00
  sigma(2 2)= -2.99847498E-05  sigma(3 1)=  0.00000000E+00
  sigma(3 3)= -1.77730433E-05  sigma(2 1)=  0.00000000E+00
 
-Cartesian components of stress tensor (GPa)         [Pressure=  7.6242E-01 GPa]
- sigma(1 1)= -8.82181649E-01  sigma(3 2)=  0.00000000E+00
- sigma(2 2)= -8.82181649E-01  sigma(3 1)=  0.00000000E+00
- sigma(3 3)= -5.22900900E-01  sigma(2 1)=  0.00000000E+00
 
================================================================================
== DATASET  2 ==================================================================
-   mpi_nproc: 126, omp_nthreads: -1 (-1 if OMP is not activated)
-    --> not optimal distribution: autoparal keyword recommended in input file <--
 

--- !DatasetInfo
iteration_state: {dtset: 2, }
dimensions: {natom: 6, nkpt: 8, mband: 27, nsppol: 1, nspinor: 1, nspden: 1, mpw: 254, }
cutoff_energies: {ecut:  20.0, pawecutdg:  -1.0, }
electrons: {nelect:   5.20000000E+01, charge:   0.00000000E+00, occopt:   1.00000000E+00, tsmear:   1.00000000E-02, }
meta: {optdriver: 0, ionmov: 2, optcell: 2, iscf: 7, paral_kgb: 1, }
...

 Exchange-correlation functional for the present dataset will be:
  GGA: Perdew-Burke-Ernzerhof functional - ixc=11
 Citation for XC functional:
  J.P.Perdew, K.Burke, M.Ernzerhof, PRL 77, 3865 (1996)
 
 Real(R)+Recip(G) space primitive vectors, cartesian coordinates (Bohr,Bohr^-1):
 R(1)=  3.0162277 -5.2242596  0.0000000  G(1)=  0.1657700 -0.0957073  0.0000000
 R(2)=  3.0162277  5.2242596  0.0000000  G(2)=  0.1657700  0.0957073  0.0000000
 R(3)=  0.0000000  0.0000000 25.2813118  G(3)=  0.0000000  0.0000000  0.0395549
 Unit cell volume ucvol=  7.9674340E+02 bohr^3
 Angles (23,13,12)=  9.00000000E+01  9.00000000E+01  1.20000000E+02 degrees
 
 getcut: wavevector=  0.0000  0.0000  0.0000  ngfft=  30  30 120
         ecut(hartree)=     24.200   => boxcut(ratio)=   2.14343
 
--- Pseudopotential description ------------------------------------------------
- pspini: atom type   1  psp file is mo.psp8
- pspatm: opening atomic psp file    mo.psp8
- Mo    ONCVPSP-3.2.3.1  r_core=   1.45541   1.45541   1.35488
- 42.00000  14.00000    170510                znucl, zion, pspdat
    8   11    2    4       600   0.00000      pspcod,pspxc,lmax,lloc,mmax,r2well
    5.99000000000000    3.00000000000000    0.00000000000000   rchrg,fchrg,qchrg
     nproj     2     2     2
     extension_switch     1
  pspatm : epsatm=   15.95693586
         --- l  ekb(1:nproj) -->
             0   13.833287    1.350687
             1    8.015347    1.134034
             2    2.765699    0.969071
 pspatm: atomic psp has been read  and splines computed
 
- pspini: atom type   2  psp file is s.psp8
- pspatm: opening atomic psp file    s.psp8
- S     ONCVPSP-3.2.3.1  r_core=   1.45376   1.45376   1.61851
- 16.00000   6.00000    170504                znucl, zion, pspdat
    8   11    2    4       600   0.00000      pspcod,pspxc,lmax,lloc,mmax,r2well
    5.99000000000000    6.00000000000000    0.00000000000000   rchrg,fchrg,qchrg
     nproj     2     2     2
     extension_switch     1
  pspatm : epsatm=    9.01821879
         --- l  ekb(1:nproj) -->
             0    6.763951    0.574108
             1    3.227080    0.887329
             2   -3.547662   -0.986524
 pspatm: atomic psp has been read  and splines computed
 
--------------------------------------------------------------------------------
 
_setup2: Arith. and geom. avg. npw (full set) are     253.531     253.530
 
================================================================================
 
=== [ionmov= 2] Broyden-Fletcher-Goldfard-Shanno method (forces)            
================================================================================
 
--- Iteration: (  1/200) Internal Cycle: (1/1)
--------------------------------------------------------------------------------
 
---SELF-CONSISTENT-FIELD CONVERGENCE--------------------------------------------

--- !BeginCycle
iteration_state: {dtset: 2, itime: 1, icycle: 1, }
solver: {iscf: 7, nstep: 100, nline: 4, wfoptalg: 114, }
tolerances: {toldfe: 1.00E-09, }
...
 
     iter   Etot(hartree)      deltaE(h)  residm     vres2
 ETOT  1  -184.28771335043    -1.843E+02 1.035E-03 2.006E+03
 ETOT  2  -181.62400014322     2.664E+00 5.230E-04 2.197E+04
 ETOT  3  -184.72960609670    -3.106E+00 3.108E-04 1.248E+01
 ETOT  4  -184.73549116843    -5.885E-03 4.675E-05 1.873E+00
 ETOT  5  -184.73574710757    -2.559E-04 1.723E-05 2.558E-01
 ETOT  6  -184.73577423363    -2.713E-05 2.500E-05 9.999E-02
 ETOT  7  -184.73578240992    -8.176E-06 9.479E-06 2.036E-03
 ETOT  8  -184.73578292093    -5.110E-07 1.124E-05 9.764E-05
 ETOT  9  -184.73578297535    -5.441E-08 7.352E-06 3.840E-05
 ETOT 10  -184.73578298473    -9.377E-09 3.496E-06 2.262E-06
 ETOT 11  -184.73578298612    -1.391E-09 4.273E-06 1.221E-08
 ETOT 12  -184.73578298635    -2.291E-10 2.225E-06 7.289E-09
 ETOT 13  -184.73578298639    -4.101E-11 1.823E-06 2.010E-09
 
 At SCF step   13, etot is converged : 
  for the second time, diff in etot=  4.101E-11 < toldfe=  1.000E-09
 
 Cartesian components of stress tensor (hartree/bohr^3)
  sigma(1 1)= -2.99851702E-05  sigma(3 2)=  0.00000000E+00
  sigma(2 2)= -2.99851702E-05  sigma(3 1)=  0.00000000E+00
  sigma(3 3)= -1.77839506E-05  sigma(2 1)=  0.00000000E+00
 

--- !ResultsGS
iteration_state: {dtset: 2, itime: 1, icycle: 1, }
comment   : Summary of ground state results
lattice_vectors:
- [  3.0162277,  -5.2242596,   0.0000000, ]
- [  3.0162277,   5.2242596,   0.0000000, ]
- [  0.0000000,   0.0000000,  25.2813118, ]
lattice_lengths: [   6.03246,    6.03246,   25.28131, ]
lattice_angles: [ 90.000,  90.000, 120.000, ] # degrees, (23, 13, 12)
lattice_volume:   7.9674340E+02
convergence: {deltae: -4.101E-11, res2:  2.010E-09, residm:  1.823E-06, diffor: null, }
etotal    :  -1.84735783E+02
entropy   :   0.00000000E+00
fermie    :   2.55084439E-01
cartesian_stress_tensor: # hartree/bohr^3
- [ -2.99851702E-05,   0.00000000E+00,   0.00000000E+00, ]
- [  0.00000000E+00,  -2.99851702E-05,   0.00000000E+00, ]
- [  0.00000000E+00,   0.00000000E+00,  -1.77839506E-05, ]
pressure_GPa:   7.6254E-01
xred      :
- [  6.6667E-01,   3.3333E-01,   2.5000E-01, Mo]
- [  3.3333E-01,   6.6667E-01,   7.5000E-01, Mo]
- [  6.6667E-01,   3.3333E-01,   6.3308E-01,  S]
- [  3.3333E-01,   6.6667E-01,   3.6692E-01,  S]
- [  6.6667E-01,   3.3333E-01,   8.6692E-01,  S]
- [  3.3333E-01,   6.6667E-01,   1.3308E-01,  S]
cartesian_forces: # hartree/bohr
- [ -1.11589935E-29,  -2.68443662E-30,   3.61400724E-20, ]
- [  5.57949674E-30,   3.75821127E-30,   3.61400724E-20, ]
- [ -2.78974837E-30,  -4.29509860E-30,   1.39425347E-03, ]
- [  2.78974837E-30,   5.36887325E-30,  -1.39425347E-03, ]
- [ -2.78974837E-30,  -7.51642254E-30,  -1.39425347E-03, ]
- [  8.36924512E-30,   5.36887325E-30,   1.39425347E-03, ]
force_length_stats: {min:   3.61400724E-20, max:   1.39425347E-03, mean:   9.29502313E-04, }
...

 Integrated electronic density in atomic spheres:
 ------------------------------------------------
 Atom  Sphere_radius  Integrated_density
    1        2.00000         10.49322418
    2        2.00000         10.49322418
    3        2.00000          3.93157163
    4        2.00000          3.93157163
    5        2.00000          3.93157163
    6        2.00000          3.93157163
 
---OUTPUT-----------------------------------------------------------------------
 
 Cartesian coordinates (xcart) [bohr]
  3.01622770247061E+00 -1.74141987595861E+00  6.32032794630680E+00
  3.01622770247061E+00  1.74141987595861E+00  1.89609838389204E+01
  3.01622770247061E+00 -1.74141987595861E+00  1.60051434276152E+01
  3.01622770247061E+00  1.74141987595861E+00  9.27616835761200E+00
  3.01622770247061E+00 -1.74141987595861E+00  2.19168242502256E+01
  3.01622770247061E+00  1.74141987595861E+00  3.36448753500160E+00
 Reduced coordinates (xred)
  6.66666666666666E-01  3.33333333333333E-01  2.50000000000000E-01
  3.33333333333333E-01  6.66666666666666E-01  7.50000000000000E-01
  6.66666666666666E-01  3.33333333333333E-01  6.33082000000000E-01
  3.33333333333333E-01  6.66666666666666E-01  3.66918000000000E-01
  6.66666666666666E-01  3.33333333333333E-01  8.66918000000000E-01
  3.33333333333333E-01  6.66666666666666E-01  1.33082000000000E-01
 Cartesian forces (fcart) [Ha/bohr]; max,rms= 1.39425E-03 6.57257E-04 (free atoms)
 -1.11589934877464E-29 -2.68443662251486E-30  3.61400724161835E-20
  5.57949674387320E-30  3.75821127152081E-30  3.61400724162667E-20
 -2.78974837193660E-30 -4.29509859602378E-30  1.39425346908774E-03
  2.78974837193660E-30  5.36887324502972E-30 -1.39425346908774E-03
 -2.78974837193660E-30 -7.51642254304161E-30 -1.39425346908774E-03
  8.36924511580981E-30  5.36887324502972E-30  1.39425346908774E-03
 Gradient of E wrt nuclear positions in reduced coordinates (gred)
  1.96338714188341E-29  4.76822591600256E-29 -9.13668438694224E-19
  2.80483877411915E-30 -3.64629040635490E-29 -9.13668438696327E-19
 -1.40241938705958E-29  3.08532265153107E-29 -3.52485566596419E-02
  1.96338714188341E-29 -3.64629040635490E-29  3.52485566596419E-02
 -3.08532265153107E-29  4.76822591600256E-29  3.52485566596419E-02
  2.80483877411914E-30 -5.32919367082639E-29 -3.52485566596419E-02
 Scale of Primitive Cell (acell) [bohr]
  1.88972613288564E+00  1.88972613288564E+00  1.88972613288564E+00
 Real space primitive translations (rprimd) [bohr]
  3.01622770247061E+00 -5.22425962787584E+00  0.00000000000000E+00
  3.01622770247061E+00  5.22425962787584E+00  0.00000000000000E+00
  0.00000000000000E+00  0.00000000000000E+00  2.52813117852272E+01
 Unitary Cell Volume (ucvol) [Bohr^3]=  7.96743403488982E+02
 Angles (23,13,12)= [degrees]
  9.00000000000000E+01  9.00000000000000E+01  1.20000000000000E+02
 Lengths [Bohr]
  6.03245540494122E+00  6.03245540494122E+00  2.52813117852272E+01
 Stress tensor in cartesian coordinates (strten) [Ha/bohr^3]
 -2.99851701856804E-05  0.00000000000000E+00  0.00000000000000E+00
  0.00000000000000E+00 -2.99851701856865E-05  0.00000000000000E+00
  0.00000000000000E+00  0.00000000000000E+00 -1.77839505861744E-05
 Total energy (etotal) [Ha]= -1.84735782986386E+02
 
--- Iteration: (  2/200) Internal Cycle: (1/1)
--------------------------------------------------------------------------------
 
---SELF-CONSISTENT-FIELD CONVERGENCE--------------------------------------------

--- !BeginCycle
iteration_state: {dtset: 2, itime: 2, icycle: 1, }
solver: {iscf: 7, nstep: 100, nline: 4, wfoptalg: 114, }
tolerances: {toldfe: 1.00E-09, }
...
 
     iter   Etot(hartree)      deltaE(h)  residm     vres2
 ETOT  1  -184.73583141141    -1.847E+02 8.308E-07 7.775E-02
 ETOT  2  -184.73583210759    -6.962E-07 1.102E-06 1.829E-04
 ETOT  3  -184.73583202012     8.747E-08 8.135E-07 8.237E-04
 ETOT  4  -184.73583215841    -1.383E-07 1.537E-06 1.508E-04
 ETOT  5  -184.73583217161    -1.320E-08 1.315E-06 3.914E-06
 ETOT  6  -184.73583217194    -3.291E-10 1.008E-06 3.238E-08
 ETOT  7  -184.73583217194    -5.315E-12 9.977E-07 1.166E-09
 
 At SCF step    7, etot is converged : 
  for the second time, diff in etot=  5.315E-12 < toldfe=  1.000E-09
 
 Cartesian components of stress tensor (hartree/bohr^3)
  sigma(1 1)= -1.62696959E-05  sigma(3 2)=  0.00000000E+00
  sigma(2 2)= -1.62696959E-05  sigma(3 1)=  0.00000000E+00
  sigma(3 3)= -1.70969171E-05  sigma(2 1)=  0.00000000E+00
 

--- !ResultsGS
iteration_state: {dtset: 2, itime: 2, icycle: 1, }
comment   : Summary of ground state results
lattice_vectors:
- [  3.0189410,  -5.2289591,   0.0000000, ]
- [  3.0189410,   5.2289591,   0.0000000, ]
- [  0.0000000,   0.0000000,  25.2947998, ]
lattice_lengths: [   6.03788,    6.03788,   25.29480, ]
lattice_angles: [ 90.000,  90.000, 120.000, ] # degrees, (23, 13, 12)
lattice_volume:   7.9860332E+02
convergence: {deltae: -5.315E-12, res2:  1.166E-09, residm:  9.977E-07, diffor: null, }
etotal    :  -1.84735832E+02
entropy   :   0.00000000E+00
fermie    :   2.54154812E-01
cartesian_stress_tensor: # hartree/bohr^3
- [ -1.62696959E-05,   0.00000000E+00,   0.00000000E+00, ]
- [  0.00000000E+00,  -1.62696959E-05,   0.00000000E+00, ]
- [  0.00000000E+00,   0.00000000E+00,  -1.70969171E-05, ]
pressure_GPa:   4.8678E-01
xred      :
- [  6.6667E-01,   3.3333E-01,   2.5000E-01, Mo]
- [  3.3333E-01,   6.6667E-01,   7.5000E-01, Mo]
- [  6.6667E-01,   3.3333E-01,   6.3314E-01,  S]
- [  3.3333E-01,   6.6667E-01,   3.6686E-01,  S]
- [  6.6667E-01,   3.3333E-01,   8.6686E-01,  S]
- [  3.3333E-01,   6.6667E-01,   1.3314E-01,  S]
cartesian_forces: # hartree/bohr
- [  1.20780447E-29,   5.90045279E-30,   0.00000000E+00, ]
- [ -1.57943662E-29,  -3.75483359E-30,   0.00000000E+00, ]
- [ -4.64540182E-30,   2.68202399E-30,   1.75861021E-03, ]
- [  9.29080365E-31,  -5.36404799E-31,  -1.75861021E-03, ]
- [ -1.85816073E-30,  -5.36404799E-30,  -1.75861021E-03, ]
- [  9.29080365E-30,   1.07280960E-30,   1.75861021E-03, ]
force_length_stats: {min:   1.34422657E-29, max:   1.75861021E-03, mean:   1.17240680E-03, }
...

 Integrated electronic density in atomic spheres:
 ------------------------------------------------
 Atom  Sphere_radius  Integrated_density
    1        2.00000         10.49769416
    2        2.00000         10.49769416
    3        2.00000          3.93174765
    4        2.00000          3.93174765
    5        2.00000          3.93174765
    6        2.00000          3.93174765
 
---OUTPUT-----------------------------------------------------------------------
 
 Cartesian coordinates (xcart) [bohr]
  3.01894096549993E+00 -1.74298637909897E+00  6.32369995830337E+00
  3.01894096549993E+00  1.74298637909897E+00  1.89710998749101E+01
  3.01894096549993E+00 -1.74298637909897E+00  1.60150774653396E+01
  3.01894096549993E+00  1.74298637909897E+00  9.27972236787389E+00
  3.01894096549993E+00 -1.74298637909897E+00  2.19271222844806E+01
  3.01894096549993E+00  1.74298637909897E+00  3.36767754873284E+00
 Reduced coordinates (xred)
  6.66666666666666E-01  3.33333333333333E-01  2.50000000000000E-01
  3.33333333333333E-01  6.66666666666666E-01  7.50000000000000E-01
  6.66666666666666E-01  3.33333333333333E-01  6.33137149569806E-01
  3.33333333333333E-01  6.66666666666666E-01  3.66862850430194E-01
  6.66666666666666E-01  3.33333333333333E-01  8.66862850430194E-01
  3.33333333333333E-01  6.66666666666666E-01  1.33137149569806E-01
 Cartesian forces (fcart) [Ha/bohr]; max,rms= 1.75861E-03 8.29017E-04 (free atoms)
  1.20780447449097E-29  5.90045278710288E-30  0.00000000000000E+00
 -1.57943662048819E-29 -3.75483359179274E-30  0.00000000000000E+00
 -4.64540182496526E-30  2.68202399413767E-30  1.75861020581271E-03
  9.29080364993053E-31 -5.36404798827535E-31 -1.75861020581271E-03
 -1.85816072998611E-30 -5.36404798827535E-30 -1.75861020581271E-03
  9.29080364993053E-30  1.07280959765507E-30  1.75861020581271E-03
 Gradient of E wrt nuclear positions in reduced coordinates (gred)
 -5.60967754823831E-30 -6.73161305788597E-29  0.00000000000000E+00
  2.80483877411915E-29  6.73161305788597E-29  0.00000000000000E+00
  2.80483877411915E-29  2.64890354190464E-45 -4.44836931406790E-02
 -5.60967754823831E-30 -3.79991485738487E-47  4.44836931406790E-02
 -2.24387101929532E-29  3.36580652894298E-29  4.44836931406790E-02
 -2.24387101929532E-29 -3.36580652894298E-29 -4.44836931406790E-02
 Scale of Primitive Cell (acell) [bohr]
  6.03788193099986E+00  6.03788193099986E+00  2.52947998332135E+01
 Real space primitive translations (rprimd) [bohr]
  3.01894096549993E+00 -5.22895913729692E+00  0.00000000000000E+00
  3.01894096549993E+00  5.22895913729692E+00  0.00000000000000E+00
  0.00000000000000E+00  0.00000000000000E+00  2.52947998332135E+01
 Unitary Cell Volume (ucvol) [Bohr^3]=  7.98603319870647E+02
 Angles (23,13,12)= [degrees]
  9.00000000000000E+01  9.00000000000000E+01  1.20000000000000E+02
 Lengths [Bohr]
  6.03788193099986E+00  6.03788193099986E+00  2.52947998332135E+01
 Stress tensor in cartesian coordinates (strten) [Ha/bohr^3]
 -1.62696958637227E-05  0.00000000000000E+00  0.00000000000000E+00
  0.00000000000000E+00 -1.62696958637323E-05  0.00000000000000E+00
  0.00000000000000E+00  0.00000000000000E+00 -1.70969170704303E-05
 Total energy (etotal) [Ha]= -1.84735832171944E+02
 
 Difference of energy with previous step (new-old):
           Absolute (Ha)=-4.91856E-05
           Relative     =-2.66248E-07
 
--- Iteration: (  3/200) Internal Cycle: (1/1)
--------------------------------------------------------------------------------
 
---SELF-CONSISTENT-FIELD CONVERGENCE--------------------------------------------

--- !BeginCycle
iteration_state: {dtset: 2, itime: 3, icycle: 1, }
solver: {iscf: 7, nstep: 100, nline: 4, wfoptalg: 114, }
tolerances: {toldfe: 1.00E-09, }
...
 
     iter   Etot(hartree)      deltaE(h)  residm     vres2
 ETOT  1  -184.73591845629    -1.847E+02 8.028E-07 1.738E+00
 ETOT  2  -184.73592200693    -3.551E-06 9.918E-07 2.103E-02
 ETOT  3  -184.73591423927     7.768E-06 3.170E-07 8.694E-02
 ETOT  4  -184.73592441386    -1.017E-05 1.683E-06 5.294E-05
 ETOT  5  -184.73592444096    -2.710E-08 3.795E-07 6.443E-05
 ETOT  6  -184.73592444405    -3.089E-09 3.780E-07 3.411E-06
 ETOT  7  -184.73592444530    -1.248E-09 3.996E-07 3.585E-07
 ETOT  8  -184.73592444533    -3.521E-11 3.628E-07 7.352E-08
 ETOT  9  -184.73592444534    -6.253E-12 3.988E-07 4.363E-09
 
 At SCF step    9, etot is converged : 
  for the second time, diff in etot=  6.253E-12 < toldfe=  1.000E-09
 
 Cartesian components of stress tensor (hartree/bohr^3)
  sigma(1 1)=  1.80803815E-05  sigma(3 2)=  0.00000000E+00
  sigma(2 2)=  1.80803815E-05  sigma(3 1)=  0.00000000E+00
  sigma(3 3)= -2.87972428E-05  sigma(2 1)=  0.00000000E+00
 

--- !ResultsGS
iteration_state: {dtset: 2, itime: 3, icycle: 1, }
comment   : Summary of ground state results
lattice_vectors:
- [  3.0257650,  -5.2407787,   0.0000000, ]
- [  3.0257650,   5.2407787,   0.0000000, ]
- [  0.0000000,   0.0000000,  25.3472268, ]
lattice_lengths: [   6.05153,    6.05153,   25.34723, ]
lattice_angles: [ 90.000,  90.000, 120.000, ] # degrees, (23, 13, 12)
lattice_volume:   8.0388044E+02
convergence: {deltae: -6.253E-12, res2:  4.363E-09, residm:  3.988E-07, diffor: null, }
etotal    :  -1.84735924E+02
entropy   :   0.00000000E+00
fermie    :   2.51484294E-01
cartesian_stress_tensor: # hartree/bohr^3
- [  1.80803815E-05,   0.00000000E+00,   0.00000000E+00, ]
- [  0.00000000E+00,   1.80803815E-05,   0.00000000E+00, ]
- [  0.00000000E+00,   0.00000000E+00,  -2.87972428E-05, ]
pressure_GPa:  -7.2214E-02
xred      :
- [  6.6667E-01,   3.3333E-01,   2.5000E-01, Mo]
- [  3.3333E-01,   6.6667E-01,   7.5000E-01, Mo]
- [  6.6667E-01,   3.3333E-01,   6.3341E-01,  S]
- [  3.3333E-01,   6.6667E-01,   3.6659E-01,  S]
- [  6.6667E-01,   3.3333E-01,   8.6659E-01,  S]
- [  3.3333E-01,   6.6667E-01,   1.3341E-01,  S]
cartesian_forces: # hartree/bohr
- [ -4.72762353E-29,  -2.56893620E-29,   1.44560290E-19, ]
- [  4.17143253E-29,   2.56893620E-29,   1.44560290E-19, ]
- [  3.50324616E-46,  -6.42234051E-30,   2.44194749E-03, ]
- [  2.78095502E-30,   1.60558513E-30,  -2.44194749E-03, ]
- [  6.95238754E-30,   8.02792564E-31,  -2.44194749E-03, ]
- [ -4.17143253E-30,   4.01396282E-30,   2.44194749E-03, ]
force_length_stats: {min:   1.44560290E-19, max:   2.44194749E-03, mean:   1.62796499E-03, }
...

 Integrated electronic density in atomic spheres:
 ------------------------------------------------
 Atom  Sphere_radius  Integrated_density
    1        2.00000         10.50437796
    2        2.00000         10.50437796
    3        2.00000          3.93432521
    4        2.00000          3.93432521
    5        2.00000          3.93432521
    6        2.00000          3.93432521
 
---OUTPUT-----------------------------------------------------------------------
 
 Cartesian coordinates (xcart) [bohr]
  3.02576498774890E+00 -1.74692623018137E+00  6.33680668901442E+00
  3.02576498774890E+00  1.74692623018137E+00  1.90104200670433E+01
  3.02576498774890E+00 -1.74692623018137E+00  1.60550676021820E+01
  3.02576498774890E+00  1.74692623018137E+00  9.29215915387564E+00
  3.02576498774890E+00 -1.74692623018137E+00  2.19657725319045E+01
  3.02576498774890E+00  1.74692623018137E+00  3.38145422415319E+00
 Reduced coordinates (xred)
  6.66666666666666E-01  3.33333333333333E-01  2.50000000000000E-01
  3.33333333333333E-01  6.66666666666666E-01  7.50000000000000E-01
  6.66666666666666E-01  3.33333333333333E-01  6.33405293474367E-01
  3.33333333333333E-01  6.66666666666666E-01  3.66594706525633E-01
  6.66666666666666E-01  3.33333333333333E-01  8.66594706525633E-01
  3.33333333333333E-01  6.66666666666666E-01  1.33405293474367E-01
 Cartesian forces (fcart) [Ha/bohr]; max,rms= 2.44195E-03 1.15115E-03 (free atoms)
 -4.72762352857088E-29 -2.56893620409186E-29  1.44560289664734E-19
  4.17143252520960E-29  2.56893620409186E-29  1.44560289664734E-19
  3.50324616081204E-46 -6.42234051022965E-30  2.44194748589739E-03
  2.78095501680640E-30  1.60558512755741E-30 -2.44194748589739E-03
  6.95238754201599E-30  8.02792563778707E-31 -2.44194748589739E-03
 -4.17143252520960E-30  4.01396281889353E-30  2.44194748589739E-03
 Gradient of E wrt nuclear positions in reduced coordinates (gred)
  8.41451632235741E-30  2.77679038637796E-28 -3.66420244205339E-18
  8.41451632235750E-30 -2.60850005993081E-28 -3.66420244205339E-18
 -3.36580652894298E-29  3.36580652894298E-29 -6.18965966514261E-02
  2.79969431576727E-45 -1.68290326447149E-29  6.18965966514261E-02
 -1.68290326447149E-29 -2.52435489670724E-29  6.18965966514261E-02
  3.36580652894298E-29 -8.41451632235747E-30 -6.18965966514261E-02
 Scale of Primitive Cell (acell) [bohr]
  6.05152997549781E+00  6.05152997549781E+00  2.53472267560577E+01
 Real space primitive translations (rprimd) [bohr]
  3.02576498774890E+00 -5.24077869054412E+00  0.00000000000000E+00
  3.02576498774890E+00  5.24077869054412E+00  0.00000000000000E+00
  0.00000000000000E+00  0.00000000000000E+00  2.53472267560577E+01
 Unitary Cell Volume (ucvol) [Bohr^3]=  8.03880436107693E+02
 Angles (23,13,12)= [degrees]
  9.00000000000000E+01  9.00000000000000E+01  1.20000000000000E+02
 Lengths [Bohr]
  6.05152997549781E+00  6.05152997549781E+00  2.53472267560577E+01
 Stress tensor in cartesian coordinates (strten) [Ha/bohr^3]
  1.80803815463459E-05  0.00000000000000E+00  0.00000000000000E+00
  0.00000000000000E+00  1.80803815463468E-05  0.00000000000000E+00
  0.00000000000000E+00  0.00000000000000E+00 -2.87972427836626E-05
 Total energy (etotal) [Ha]= -1.84735924445339E+02
 
 Difference of energy with previous step (new-old):
           Absolute (Ha)=-9.22734E-05
           Relative     =-4.99488E-07
 
--- Iteration: (  4/200) Internal Cycle: (1/1)
--------------------------------------------------------------------------------
 
---SELF-CONSISTENT-FIELD CONVERGENCE--------------------------------------------

--- !BeginCycle
iteration_state: {dtset: 2, itime: 4, icycle: 1, }
solver: {iscf: 7, nstep: 100, nline: 4, wfoptalg: 114, }
tolerances: {toldfe: 1.00E-09, }
...
 
     iter   Etot(hartree)      deltaE(h)  residm     vres2
 ETOT  1  -184.73598374182    -1.847E+02 8.407E-07 1.108E-01
 ETOT  2  -184.73598466793    -9.261E-07 2.925E-07 2.231E-02
 ETOT  3  -184.73597774000     6.928E-06 3.491E-07 7.936E-02
 ETOT  4  -184.73598739396    -9.654E-06 4.381E-07 2.328E-05
 ETOT  5  -184.73598741005    -1.609E-08 9.802E-08 4.273E-05
 ETOT  6  -184.73598741195    -1.899E-09 1.560E-07 3.258E-06
 ETOT  7  -184.73598741304    -1.084E-09 1.400E-07 1.275E-07
 ETOT  8  -184.73598741306    -2.055E-11 1.297E-07 7.547E-08
 ETOT  9  -184.73598741306    -3.553E-12 1.286E-07 3.208E-09
 
 At SCF step    9, etot is converged : 
  for the second time, diff in etot=  3.553E-12 < toldfe=  1.000E-09
 
 Cartesian components of stress tensor (hartree/bohr^3)
  sigma(1 1)=  7.07506535E-05  sigma(3 2)=  0.00000000E+00
  sigma(2 2)=  7.07506535E-05  sigma(3 1)=  0.00000000E+00
  sigma(3 3)= -1.23277162E-05  sigma(2 1)=  0.00000000E+00
 

--- !ResultsGS
iteration_state: {dtset: 2, itime: 4, icycle: 1, }
comment   : Summary of ground state results
lattice_vectors:
- [  3.0319636,  -5.2515150,   0.0000000, ]
- [  3.0319636,   5.2515150,   0.0000000, ]
- [  0.0000000,   0.0000000,  25.4394736, ]
lattice_lengths: [   6.06393,    6.06393,   25.43947, ]
lattice_angles: [ 90.000,  90.000, 120.000, ] # degrees, (23, 13, 12)
lattice_volume:   8.1011505E+02
convergence: {deltae: -3.553E-12, res2:  3.208E-09, residm:  1.286E-07, diffor: null, }
etotal    :  -1.84735987E+02
entropy   :   0.00000000E+00
fermie    :   2.48078372E-01
cartesian_stress_tensor: # hartree/bohr^3
- [  7.07506535E-05,   0.00000000E+00,   0.00000000E+00, ]
- [  0.00000000E+00,   7.07506535E-05,   0.00000000E+00, ]
- [  0.00000000E+00,   0.00000000E+00,  -1.23277162E-05, ]
pressure_GPa:  -1.2668E+00
xred      :
- [  6.6667E-01,   3.3333E-01,   2.5000E-01, Mo]
- [  3.3333E-01,   6.6667E-01,   7.5000E-01, Mo]
- [  6.6667E-01,   3.3333E-01,   6.3383E-01,  S]
- [  3.3333E-01,   6.6667E-01,   3.6617E-01,  S]
- [  6.6667E-01,   3.3333E-01,   8.6617E-01,  S]
- [  3.3333E-01,   6.6667E-01,   1.3383E-01,  S]
cartesian_forces: # hartree/bohr
- [  5.55053919E-30,  -3.09778512E-29,   1.44560290E-19, ]
- [  3.88537743E-29,   1.38866229E-29,   1.44560290E-19, ]
- [ -1.38763480E-29,   2.67050441E-30,   3.11734466E-03, ]
- [ -8.32580878E-30,   5.87510971E-30,  -3.11734466E-03, ]
- [ -5.55053919E-30,   4.27280706E-30,  -3.11734466E-03, ]
- [ -1.66516176E-29,   4.27280706E-30,   3.11734466E-03, ]
force_length_stats: {min:   1.44560290E-19, max:   3.11734466E-03, mean:   2.07822977E-03, }
...

 Integrated electronic density in atomic spheres:
 ------------------------------------------------
 Atom  Sphere_radius  Integrated_density
    1        2.00000         10.48703241
    2        2.00000         10.48703241
    3        2.00000          3.92945496
    4        2.00000          3.92945496
    5        2.00000          3.92945496
    6        2.00000          3.92945496
 
---OUTPUT-----------------------------------------------------------------------
 
 Cartesian coordinates (xcart) [bohr]
  3.03196357619832E+00 -1.75050498689124E+00  6.35986839227160E+00
  3.03196357619832E+00  1.75050498689124E+00  1.90796051768148E+01
  3.03196357619832E+00 -1.75050498689124E+00  1.61244051966733E+01
  3.03196357619832E+00  1.75050498689124E+00  9.31506837241314E+00
  3.03196357619832E+00 -1.75050498689124E+00  2.20348051569563E+01
  3.03196357619832E+00  1.75050498689124E+00  3.40466841213006E+00
 Reduced coordinates (xred)
  6.66666666666666E-01  3.33333333333333E-01  2.50000000000000E-01
  3.33333333333333E-01  6.66666666666666E-01  7.50000000000000E-01
  6.66666666666666E-01  3.33333333333333E-01  6.33834074941997E-01
  3.33333333333333E-01  6.66666666666666E-01  3.66165925058003E-01
  6.66666666666666E-01  3.33333333333333E-01  8.66165925058003E-01
  3.33333333333333E-01  6.66666666666666E-01  1.33834074941997E-01
 Cartesian forces (fcart) [Ha/bohr]; max,rms= 3.11734E-03 1.46953E-03 (free atoms)
  5.55053918748467E-30 -3.09778511757378E-29  1.44560289664734E-19
  3.88537743123927E-29  1.38866229408480E-29  1.44560289664569E-19
 -1.38763479687117E-29  2.67050441170153E-30  3.11734466026266E-03
 -8.32580878122700E-30  5.87510970574337E-30 -3.11734466026266E-03
 -5.55053918748467E-30  4.27280705872245E-30 -3.11734466026266E-03
 -1.66516175624540E-29  4.27280705872245E-30  3.11734466026266E-03
 Gradient of E wrt nuclear positions in reduced coordinates (gred)
 -1.79509681543626E-28  1.45851616254196E-28 -3.67753766806547E-18
 -4.48774203859064E-29 -1.90729036640102E-28 -3.67753766806127E-18
  5.60967754823831E-29  2.80483877411915E-29 -7.93036070904844E-02
  5.60967754823831E-29 -5.60967754823832E-30  7.93036070904845E-02
  3.92677428376681E-29 -5.60967754823831E-30  7.93036070904845E-02
  7.29258081270980E-29  2.80483877411915E-29 -7.93036070904844E-02
 Scale of Primitive Cell (acell) [bohr]
  6.06392715239664E+00  6.06392715239664E+00  2.54394735690864E+01
 Real space primitive translations (rprimd) [bohr]
  3.03196357619832E+00 -5.25151496067372E+00  0.00000000000000E+00
  3.03196357619832E+00  5.25151496067372E+00  0.00000000000000E+00
  0.00000000000000E+00  0.00000000000000E+00  2.54394735690864E+01
 Unitary Cell Volume (ucvol) [Bohr^3]=  8.10115053772764E+02
 Angles (23,13,12)= [degrees]
  9.00000000000000E+01  9.00000000000000E+01  1.20000000000000E+02
 Lengths [Bohr]
  6.06392715239664E+00  6.06392715239664E+00  2.54394735690864E+01
 Stress tensor in cartesian coordinates (strten) [Ha/bohr^3]
  7.07506535368302E-05  0.00000000000000E+00  0.00000000000000E+00
  0.00000000000000E+00  7.07506535368259E-05  0.00000000000000E+00
  0.00000000000000E+00  0.00000000000000E+00 -1.23277162027884E-05
 Total energy (etotal) [Ha]= -1.84735987413061E+02
 
 Difference of energy with previous step (new-old):
           Absolute (Ha)=-6.29677E-05
           Relative     =-3.40853E-07
 
--- Iteration: (  5/200) Internal Cycle: (1/1)
--------------------------------------------------------------------------------
 
---SELF-CONSISTENT-FIELD CONVERGENCE--------------------------------------------

--- !BeginCycle
iteration_state: {dtset: 2, itime: 5, icycle: 1, }
solver: {iscf: 7, nstep: 100, nline: 4, wfoptalg: 114, }
tolerances: {toldfe: 1.00E-09, }
...
 
     iter   Etot(hartree)      deltaE(h)  residm     vres2
 ETOT  1  -184.73611052367    -1.847E+02 1.633E-07 5.736E-02
 ETOT  2  -184.73611200596    -1.482E-06 1.258E-07 1.082E-02
 ETOT  3  -184.73610973327     2.273E-06 1.364E-07 2.951E-02
 ETOT  4  -184.73611324413    -3.511E-06 1.968E-07 2.209E-05
 ETOT  5  -184.73611325431    -1.018E-08 4.494E-08 2.476E-05
 ETOT  6  -184.73611325556    -1.249E-09 7.241E-08 9.598E-07
 ETOT  7  -184.73611325592    -3.654E-10 4.702E-08 1.127E-07
 ETOT  8  -184.73611325594    -2.038E-11 9.154E-08 2.000E-08
 
 At SCF step    8, etot is converged : 
  for the second time, diff in etot=  2.038E-11 < toldfe=  1.000E-09
 
 Cartesian components of stress tensor (hartree/bohr^3)
  sigma(1 1)=  5.35342828E-05  sigma(3 2)=  0.00000000E+00
  sigma(2 2)=  5.35342828E-05  sigma(3 1)=  0.00000000E+00
  sigma(3 3)= -1.48052434E-05  sigma(2 1)=  0.00000000E+00
 

--- !ResultsGS
iteration_state: {dtset: 2, itime: 5, icycle: 1, }
comment   : Summary of ground state results
lattice_vectors:
- [  3.0296893,  -5.2475758,   0.0000000, ]
- [  3.0296893,   5.2475758,   0.0000000, ]
- [  0.0000000,   0.0000000,  25.4609698, ]
lattice_lengths: [   6.05938,    6.05938,   25.46097, ]
lattice_angles: [ 90.000,  90.000, 120.000, ] # degrees, (23, 13, 12)
lattice_volume:   8.0958370E+02
convergence: {deltae: -2.038E-11, res2:  2.000E-08, residm:  9.154E-08, diffor: null, }
etotal    :  -1.84736113E+02
entropy   :   0.00000000E+00
fermie    :   2.48191004E-01
cartesian_stress_tensor: # hartree/bohr^3
- [  5.35342828E-05,   0.00000000E+00,   0.00000000E+00, ]
- [  0.00000000E+00,   5.35342828E-05,   0.00000000E+00, ]
- [  0.00000000E+00,   0.00000000E+00,  -1.48052434E-05, ]
pressure_GPa:  -9.0483E-01
xred      :
- [  6.6667E-01,   3.3333E-01,   2.5000E-01, Mo]
- [  3.3333E-01,   6.6667E-01,   7.5000E-01, Mo]
- [  6.6667E-01,   3.3333E-01,   6.3397E-01,  S]
- [  3.3333E-01,   6.6667E-01,   3.6603E-01,  S]
- [  6.6667E-01,   3.3333E-01,   8.6603E-01,  S]
- [  3.3333E-01,   6.6667E-01,   1.3397E-01,  S]
cartesian_forces: # hartree/bohr
- [ -2.49961758E-29,  -1.60350543E-30,   0.00000000E+00, ]
- [  8.33205860E-30,   4.81051628E-30,  -8.26217187E-32, ]
- [  1.66641172E-29,   1.92420651E-29,   2.63065418E-03, ]
- [  1.66641172E-29,  -6.41402170E-30,  -2.63065418E-03, ]
- [  1.66641172E-29,  -3.20701085E-30,  -2.63065418E-03, ]
- [ -3.33282344E-29,  -1.28280434E-29,   2.63065418E-03, ]
force_length_stats: {min:   9.62138731E-30, max:   2.63065418E-03, mean:   1.75376945E-03, }
...

 Integrated electronic density in atomic spheres:
 ------------------------------------------------
 Atom  Sphere_radius  Integrated_density
    1        2.00000         10.48696192
    2        2.00000         10.48696192
    3        2.00000          3.93264619
    4        2.00000          3.93264619
    5        2.00000          3.93264619
    6        2.00000          3.93264619
 
---OUTPUT-----------------------------------------------------------------------
 
 Cartesian coordinates (xcart) [bohr]
  3.02968932125956E+00 -1.74919194519014E+00  6.36524244113195E+00
  3.02968932125956E+00  1.74919194519014E+00  1.90957273233958E+01
  3.02968932125956E+00 -1.74919194519014E+00  1.61416135401514E+01
  3.02968932125956E+00  1.74919194519014E+00  9.31935622437641E+00
  3.02968932125956E+00 -1.74919194519014E+00  2.20498411066403E+01
  3.02968932125956E+00  1.74919194519014E+00  3.41112865788749E+00
 Reduced coordinates (xred)
  6.66666666666666E-01  3.33333333333333E-01  2.50000000000000E-01
  3.33333333333333E-01  6.66666666666666E-01  7.50000000000000E-01
  6.66666666666666E-01  3.33333333333333E-01  6.33974812799152E-01
  3.33333333333333E-01  6.66666666666666E-01  3.66025187200848E-01
  6.66666666666666E-01  3.33333333333333E-01  8.66025187200848E-01
  3.33333333333333E-01  6.66666666666666E-01  1.33974812799152E-01
 Cartesian forces (fcart) [Ha/bohr]; max,rms= 2.63065E-03 1.24010E-03 (free atoms)
 -2.49961758025186E-29 -1.60350542536615E-30  0.00000000000000E+00
  8.33205860083953E-30  4.81051627609844E-30 -8.26217186558282E-32
  1.66641172016791E-29  1.92420651043937E-29  2.63065417781146E-03
  1.66641172016791E-29 -6.41402170146458E-30 -2.63065417781146E-03
  1.66641172016791E-29 -3.20701085073229E-30 -2.63065417781146E-03
 -3.33282344033581E-29 -1.28280434029292E-29  2.63065417781146E-03
 Gradient of E wrt nuclear positions in reduced coordinates (gred)
  6.73161305788597E-29  8.41451632235746E-29  0.00000000000000E+00
  2.33391923578250E-45 -5.04870979341447E-29  2.10362908058936E-30
  5.04870979341448E-29 -1.51461293802434E-28 -6.69790064821864E-02
 -8.41451632235746E-29 -1.68290326447149E-29  6.69790064821864E-02
 -6.73161305788597E-29 -3.36580652894298E-29  6.69790064821864E-02
  3.36580652894299E-29  1.68290326447149E-28 -6.69790064821864E-02
 Scale of Primitive Cell (acell) [bohr]
  6.05937864251912E+00  6.05937864251912E+00  2.54609697645278E+01
 Real space primitive translations (rprimd) [bohr]
  3.02968932125956E+00 -5.24757583557042E+00  0.00000000000000E+00
  3.02968932125956E+00  5.24757583557042E+00  0.00000000000000E+00
  0.00000000000000E+00  0.00000000000000E+00  2.54609697645278E+01
 Unitary Cell Volume (ucvol) [Bohr^3]=  8.09583701740330E+02
 Angles (23,13,12)= [degrees]
  9.00000000000000E+01  9.00000000000000E+01  1.20000000000000E+02
 Lengths [Bohr]
  6.05937864251912E+00  6.05937864251912E+00  2.54609697645278E+01
 Stress tensor in cartesian coordinates (strten) [Ha/bohr^3]
  5.35342828182879E-05  0.00000000000000E+00  0.00000000000000E+00
  0.00000000000000E+00  5.35342828182827E-05  0.00000000000000E+00
  0.00000000000000E+00  0.00000000000000E+00 -1.48052433915644E-05
 Total energy (etotal) [Ha]= -1.84736113255944E+02
 
 Difference of energy with previous step (new-old):
           Absolute (Ha)=-1.25843E-04
           Relative     =-6.81204E-07
 
--- Iteration: (  6/200) Internal Cycle: (1/1)
--------------------------------------------------------------------------------
 
---SELF-CONSISTENT-FIELD CONVERGENCE--------------------------------------------

--- !BeginCycle
iteration_state: {dtset: 2, itime: 6, icycle: 1, }
solver: {iscf: 7, nstep: 100, nline: 4, wfoptalg: 114, }
tolerances: {toldfe: 1.00E-09, }
...
 
     iter   Etot(hartree)      deltaE(h)  residm     vres2
 ETOT  1  -184.73634522494    -1.847E+02 7.044E-08 1.378E+00
 ETOT  2  -184.73635622070    -1.100E-05 3.651E-08 1.431E-01
 ETOT  3  -184.73630737605     4.884E-05 2.801E-08 5.452E-01
 ETOT  4  -184.73637290198    -6.553E-05 2.624E-08 1.603E-04
 ETOT  5  -184.73637304560    -1.436E-07 3.630E-08 2.397E-04
 ETOT  6  -184.73637305460    -9.002E-09 1.759E-08 2.605E-05
 ETOT  7  -184.73637306333    -8.720E-09 2.249E-08 2.378E-06
 ETOT  8  -184.73637306355    -2.257E-10 2.432E-08 5.913E-07
 ETOT  9  -184.73637306363    -7.694E-11 2.780E-08 2.722E-08
 
 At SCF step    9, etot is converged : 
  for the second time, diff in etot=  7.694E-11 < toldfe=  1.000E-09
 
 Cartesian components of stress tensor (hartree/bohr^3)
  sigma(1 1)=  2.69211616E-05  sigma(3 2)=  0.00000000E+00
  sigma(2 2)=  2.69211616E-05  sigma(3 1)=  0.00000000E+00
  sigma(3 3)=  1.77440530E-05  sigma(2 1)=  0.00000000E+00
 

--- !ResultsGS
iteration_state: {dtset: 2, itime: 6, icycle: 1, }
comment   : Summary of ground state results
lattice_vectors:
- [  3.0223035,  -5.2347832,   0.0000000, ]
- [  3.0223035,   5.2347832,   0.0000000, ]
- [  0.0000000,   0.0000000,  25.6854606, ]
lattice_lengths: [   6.04461,    6.04461,   25.68546, ]
lattice_angles: [ 90.000,  90.000, 120.000, ] # degrees, (23, 13, 12)
lattice_volume:   8.1274467E+02
convergence: {deltae: -7.694E-11, res2:  2.722E-08, residm:  2.780E-08, diffor: null, }
etotal    :  -1.84736373E+02
entropy   :   0.00000000E+00
fermie    :   2.45451395E-01
cartesian_stress_tensor: # hartree/bohr^3
- [  2.69211616E-05,   0.00000000E+00,   0.00000000E+00, ]
- [  0.00000000E+00,   2.69211616E-05,   0.00000000E+00, ]
- [  0.00000000E+00,   0.00000000E+00,   1.77440530E-05, ]
pressure_GPa:  -7.0205E-01
xred      :
- [  6.6667E-01,   3.3333E-01,   2.5000E-01, Mo]
- [  3.3333E-01,   6.6667E-01,   7.5000E-01, Mo]
- [  6.6667E-01,   3.3333E-01,   6.3524E-01,  S]
- [  3.3333E-01,   6.6667E-01,   3.6476E-01,  S]
- [  6.6667E-01,   3.3333E-01,   8.6476E-01,  S]
- [  3.3333E-01,   6.6667E-01,   1.3524E-01,  S]
cartesian_forces: # hartree/bohr
- [ -4.64023347E-30,  -2.67904004E-30,   0.00000000E+00, ]
- [ -4.64023347E-30,  -2.67904004E-30,   0.00000000E+00, ]
- [  3.43377277E-29,   1.33952002E-29,   3.96171101E-04, ]
- [ -2.69133541E-29,   3.75065606E-30,  -3.96171101E-04, ]
- [  2.87694475E-29,   3.75065606E-30,  -3.96171101E-04, ]
- [ -2.69133541E-29,  -1.55384322E-29,   3.96171101E-04, ]
force_length_stats: {min:   5.35808008E-30, max:   3.96171101E-04, mean:   2.64114067E-04, }
...

 Integrated electronic density in atomic spheres:
 ------------------------------------------------
 Atom  Sphere_radius  Integrated_density
    1        2.00000         10.50946324
    2        2.00000         10.50946324
    3        2.00000          3.90831612
    4        2.00000          3.90831612
    5        2.00000          3.90831612
    6        2.00000          3.90831612
 
---OUTPUT-----------------------------------------------------------------------
 
 Cartesian coordinates (xcart) [bohr]
  3.02230350347752E+00 -1.74492774130549E+00  6.42136514811486E+00
  3.02230350347752E+00  1.74492774130550E+00  1.92640954443446E+01
  3.02230350347752E+00 -1.74492774130549E+00  1.63165319486180E+01
  3.02230350347752E+00  1.74492774130550E+00  9.36892864384140E+00
  3.02230350347752E+00 -1.74492774130549E+00  2.22116589400711E+01
  3.02230350347752E+00  1.74492774130550E+00  3.47380165238832E+00
 Reduced coordinates (xred)
  6.66666666666666E-01  3.33333333333333E-01  2.50000000000000E-01
  3.33333333333333E-01  6.66666666666666E-01  7.50000000000000E-01
  6.66666666666666E-01  3.33333333333333E-01  6.35243891768409E-01
  3.33333333333333E-01  6.66666666666666E-01  3.64756108231591E-01
  6.66666666666666E-01  3.33333333333333E-01  8.64756108231591E-01
  3.33333333333333E-01  6.66666666666666E-01  1.35243891768409E-01
 Cartesian forces (fcart) [Ha/bohr]; max,rms= 3.96171E-04 1.86757E-04 (free atoms)
 -4.64023346909378E-30 -2.67904004248400E-30  0.00000000000000E+00
 -4.64023346909378E-30 -2.67904004248400E-30  0.00000000000000E+00
  3.43377276712940E-29  1.33952002124200E-29  3.96171100994739E-04
 -2.69133541207439E-29  3.75065605947760E-30 -3.96171100994739E-04
  2.87694475083814E-29  3.75065605947760E-30 -3.96171100994739E-04
 -2.69133541207439E-29 -1.55384322464072E-29  3.96171100994739E-04
 Gradient of E wrt nuclear positions in reduced coordinates (gred)
  2.08222092501338E-45  2.80483877411915E-29  0.00000000000000E+00
  2.08222092501338E-45  2.80483877411915E-29  0.00000000000000E+00
 -3.36580652894299E-29 -1.73900003995388E-28 -1.01758372024716E-02
  1.00974195868289E-28  6.17064530306214E-29  1.01758372024716E-02
 -6.73161305788597E-29 -1.06583873416528E-28  1.01758372024716E-02
 -5.56072696631182E-45  1.62680648898911E-28 -1.01758372024716E-02
 Scale of Primitive Cell (acell) [bohr]
  6.04460700695504E+00  6.04460700695504E+00  2.56854605924594E+01
 Real space primitive translations (rprimd) [bohr]
  3.02230350347752E+00 -5.23478322391648E+00  0.00000000000000E+00
  3.02230350347752E+00  5.23478322391649E+00  0.00000000000000E+00
  0.00000000000000E+00  0.00000000000000E+00  2.56854605924594E+01
 Unitary Cell Volume (ucvol) [Bohr^3]=  8.12744670079810E+02
 Angles (23,13,12)= [degrees]
  9.00000000000000E+01  9.00000000000000E+01  1.20000000000000E+02
 Lengths [Bohr]
  6.04460700695504E+00  6.04460700695504E+00  2.56854605924594E+01
 Stress tensor in cartesian coordinates (strten) [Ha/bohr^3]
  2.69211616415873E-05  0.00000000000000E+00  0.00000000000000E+00
  0.00000000000000E+00  2.69211616415873E-05  0.00000000000000E+00
  0.00000000000000E+00  0.00000000000000E+00  1.77440530044672E-05
 Total energy (etotal) [Ha]= -1.84736373063628E+02
 
 Difference of energy with previous step (new-old):
           Absolute (Ha)=-2.59808E-04
           Relative     =-1.40637E-06
 
--- Iteration: (  7/200) Internal Cycle: (1/1)
--------------------------------------------------------------------------------
 
---SELF-CONSISTENT-FIELD CONVERGENCE--------------------------------------------

--- !BeginCycle
iteration_state: {dtset: 2, itime: 7, icycle: 1, }
solver: {iscf: 7, nstep: 100, nline: 4, wfoptalg: 114, }
tolerances: {toldfe: 1.00E-09, }
...
 
     iter   Etot(hartree)      deltaE(h)  residm     vres2
 ETOT  1  -184.73638867764    -1.847E+02 6.216E-08 5.119E-02
 ETOT  2  -184.73639052280    -1.845E-06 4.275E-08 1.247E-02
 ETOT  3  -184.73638986701     6.558E-07 1.218E-08 1.744E-02
 ETOT  4  -184.73639194215    -2.075E-06 2.867E-08 2.305E-05
 ETOT  5  -184.73639194757    -5.413E-09 1.139E-08 2.615E-05
 ETOT  6  -184.73639194901    -1.447E-09 2.007E-08 3.675E-07
 ETOT  7  -184.73639194918    -1.655E-10 1.143E-08 6.158E-08
 ETOT  8  -184.73639194918    -4.377E-12 1.106E-08 9.470E-09
 
 At SCF step    8, etot is converged : 
  for the second time, diff in etot=  4.377E-12 < toldfe=  1.000E-09
 
 Cartesian components of stress tensor (hartree/bohr^3)
  sigma(1 1)= -1.05321744E-05  sigma(3 2)=  0.00000000E+00
  sigma(2 2)= -1.05321744E-05  sigma(3 1)=  0.00000000E+00
  sigma(3 3)= -1.40976498E-05  sigma(2 1)=  0.00000000E+00
 

--- !ResultsGS
iteration_state: {dtset: 2, itime: 7, icycle: 1, }
comment   : Summary of ground state results
lattice_vectors:
- [  3.0179391,  -5.2272238,   0.0000000, ]
- [  3.0179391,   5.2272238,   0.0000000, ]
- [  0.0000000,   0.0000000,  25.6639310, ]
lattice_lengths: [   6.03588,    6.03588,   25.66393, ]
lattice_angles: [ 90.000,  90.000, 120.000, ] # degrees, (23, 13, 12)
lattice_volume:   8.0971976E+02
convergence: {deltae: -4.377E-12, res2:  9.470E-09, residm:  1.106E-08, diffor: null, }
etotal    :  -1.84736392E+02
entropy   :   0.00000000E+00
fermie    :   2.46965210E-01
cartesian_stress_tensor: # hartree/bohr^3
- [ -1.05321744E-05,   0.00000000E+00,   0.00000000E+00, ]
- [  0.00000000E+00,  -1.05321744E-05,   0.00000000E+00, ]
- [  0.00000000E+00,   0.00000000E+00,  -1.40976498E-05, ]
pressure_GPa:   3.4483E-01
xred      :
- [  6.6667E-01,   3.3333E-01,   2.5000E-01, Mo]
- [  3.3333E-01,   6.6667E-01,   7.5000E-01, Mo]
- [  6.6667E-01,   3.3333E-01,   6.3520E-01,  S]
- [  3.3333E-01,   6.6667E-01,   3.6480E-01,  S]
- [  6.6667E-01,   3.3333E-01,   8.6480E-01,  S]
- [  3.3333E-01,   6.6667E-01,   1.3520E-01,  S]
cartesian_forces: # hartree/bohr
- [  2.78816640E-30,   3.75608012E-30,   2.71050543E-20, ]
- [ -2.78816640E-30,   5.36582874E-31,   2.71050543E-20, ]
- [ -1.11526656E-29,  -1.07316575E-29,  -4.26192466E-04, ]
- [  1.01019789E-45,   8.58532599E-30,   4.26192466E-04, ]
- [ -2.23053312E-29,  -1.71706520E-29,   4.26192466E-04, ]
- [  3.34579968E-29,   1.50243205E-29,  -4.26192466E-04, ]
force_length_stats: {min:   2.71050543E-20, max:   4.26192466E-04, mean:   2.84128311E-04, }
...

 Integrated electronic density in atomic spheres:
 ------------------------------------------------
 Atom  Sphere_radius  Integrated_density
    1        2.00000         10.50272302
    2        2.00000         10.50272302
    3        2.00000          3.92841987
    4        2.00000          3.92841987
    5        2.00000          3.92841987
    6        2.00000          3.92841987
 
---OUTPUT-----------------------------------------------------------------------
 
 Cartesian coordinates (xcart) [bohr]
  3.01793907057792E+00 -1.74240793479605E+00  6.41598275025500E+00
  3.01793907057792E+00  1.74240793479605E+00  1.92479482507650E+01
  3.01793907057792E+00 -1.74240793479605E+00  1.63018541794659E+01
  3.01793907057792E+00  1.74240793479605E+00  9.36207682155413E+00
  3.01793907057792E+00 -1.74240793479605E+00  2.21940423220641E+01
  3.01793907057792E+00  1.74240793479605E+00  3.46988867895588E+00
 Reduced coordinates (xred)
  6.66666666666666E-01  3.33333333333333E-01  2.50000000000000E-01
  3.33333333333333E-01  6.66666666666666E-01  7.50000000000000E-01
  6.66666666666666E-01  3.33333333333333E-01  6.35204878738880E-01
  3.33333333333333E-01  6.66666666666666E-01  3.64795121261121E-01
  6.66666666666666E-01  3.33333333333333E-01  8.64795121261120E-01
  3.33333333333333E-01  6.66666666666666E-01  1.35204878738879E-01
 Cartesian forces (fcart) [Ha/bohr]; max,rms= 4.26192E-04 2.00909E-04 (free atoms)
  2.78816640282473E-30  3.75608012083810E-30  2.71050543121376E-20
 -2.78816640282473E-30  5.36582874405444E-31  2.71050543122196E-20
 -1.11526656112989E-29 -1.07316574881089E-29 -4.26192465905889E-04
  1.01019788585264E-45  8.58532599048709E-30  4.26192465905889E-04
 -2.23053312225979E-29 -1.71706519809742E-29  4.26192465905889E-04
  3.34579968338968E-29  1.50243204833524E-29 -4.26192465905889E-04
 Gradient of E wrt nuclear positions in reduced coordinates (gred)
  1.12193550964766E-29 -2.80483877411915E-29 -6.95622243645600E-19
  1.12193550964766E-29  5.60967754823830E-30 -6.95622243647703E-19
 -2.24387101929532E-29  8.97548407718129E-29  1.09377740381633E-02
  4.48774203859064E-29 -4.48774203859065E-29 -1.09377740381633E-02
 -2.24387101929532E-29  1.57070971350673E-28 -1.09377740381633E-02
 -2.24387101929532E-29 -1.79509681543626E-28  1.09377740381633E-02
 Scale of Primitive Cell (acell) [bohr]
  6.03587814115584E+00  6.03587814115584E+00  2.56639310010200E+01
 Real space primitive translations (rprimd) [bohr]
  3.01793907057792E+00 -5.22722380438816E+00  0.00000000000000E+00
  3.01793907057792E+00  5.22722380438816E+00  0.00000000000000E+00
  0.00000000000000E+00  0.00000000000000E+00  2.56639310010200E+01
 Unitary Cell Volume (ucvol) [Bohr^3]=  8.09719758754445E+02
 Angles (23,13,12)= [degrees]
  9.00000000000000E+01  9.00000000000000E+01  1.20000000000000E+02
 Lengths [Bohr]
  6.03587814115584E+00  6.03587814115584E+00  2.56639310010200E+01
 Stress tensor in cartesian coordinates (strten) [Ha/bohr^3]
 -1.05321743761036E-05  0.00000000000000E+00  0.00000000000000E+00
  0.00000000000000E+00 -1.05321743761088E-05  0.00000000000000E+00
  0.00000000000000E+00  0.00000000000000E+00 -1.40976497894464E-05
 Total energy (etotal) [Ha]= -1.84736391949184E+02
 
 Difference of energy with previous step (new-old):
           Absolute (Ha)=-1.88856E-05
           Relative     =-1.02230E-07
 
--- Iteration: (  8/200) Internal Cycle: (1/1)
--------------------------------------------------------------------------------
 
---SELF-CONSISTENT-FIELD CONVERGENCE--------------------------------------------

--- !BeginCycle
iteration_state: {dtset: 2, itime: 8, icycle: 1, }
solver: {iscf: 7, nstep: 100, nline: 4, wfoptalg: 114, }
tolerances: {toldfe: 1.00E-09, }
...
 
     iter   Etot(hartree)      deltaE(h)  residm     vres2
 ETOT  1  -184.73639769297    -1.847E+02 1.428E-08 6.694E-03
 ETOT  2  -184.73639780540    -1.124E-07 1.027E-08 2.160E-03
 ETOT  3  -184.73639757968     2.257E-07 5.026E-08 4.019E-03
 ETOT  4  -184.73639806343    -4.837E-07 1.184E-08 2.874E-06
 ETOT  5  -184.73639806430    -8.749E-10 7.355E-09 4.254E-06
 ETOT  6  -184.73639806452    -2.208E-10 5.777E-09 1.307E-07
 
 At SCF step    6, etot is converged : 
  for the second time, diff in etot=  2.208E-10 < toldfe=  1.000E-09
 
 Cartesian components of stress tensor (hartree/bohr^3)
  sigma(1 1)= -1.78923888E-07  sigma(3 2)=  0.00000000E+00
  sigma(2 2)= -1.78923888E-07  sigma(3 1)=  0.00000000E+00
  sigma(3 3)= -3.90543946E-06  sigma(2 1)=  0.00000000E+00
 

--- !ResultsGS
iteration_state: {dtset: 2, itime: 8, icycle: 1, }
comment   : Summary of ground state results
lattice_vectors:
- [  3.0190166,  -5.2290902,   0.0000000, ]
- [  3.0190166,   5.2290902,   0.0000000, ]
- [  0.0000000,   0.0000000,  25.6765793, ]
lattice_lengths: [   6.03803,    6.03803,   25.67658, ]
lattice_angles: [ 90.000,  90.000, 120.000, ] # degrees, (23, 13, 12)
lattice_volume:   8.1069743E+02
convergence: {deltae: -2.208E-10, res2:  1.307E-07, residm:  5.777E-09, diffor: null, }
etotal    :  -1.84736398E+02
entropy   :   0.00000000E+00
fermie    :   2.46408907E-01
cartesian_stress_tensor: # hartree/bohr^3
- [ -1.78923888E-07,   0.00000000E+00,   0.00000000E+00, ]
- [  0.00000000E+00,  -1.78923888E-07,   0.00000000E+00, ]
- [  0.00000000E+00,   0.00000000E+00,  -3.90543946E-06, ]
pressure_GPa:   4.1810E-02
xred      :
- [  6.6667E-01,   3.3333E-01,   2.5000E-01, Mo]
- [  3.3333E-01,   6.6667E-01,   7.5000E-01, Mo]
- [  6.6667E-01,   3.3333E-01,   6.3523E-01,  S]
- [  3.3333E-01,   6.6667E-01,   3.6477E-01,  S]
- [  6.6667E-01,   3.3333E-01,   8.6477E-01,  S]
- [  3.3333E-01,   6.6667E-01,   1.3523E-01,  S]
cartesian_forces: # hartree/bohr
- [ -1.39358562E-29,  -1.60917407E-30,   0.00000000E+00, ]
- [  2.50845412E-29,   2.09192629E-29,  -1.22891900E-31, ]
- [ -1.39358562E-29,  -4.82752221E-30,  -1.29617303E-04, ]
- [  1.39358562E-29,   4.82752221E-30,   1.29617303E-04, ]
- [  5.57434250E-30,  -3.21834814E-30,   1.29617303E-04, ]
- [ -1.67230275E-29,  -1.60917407E-29,  -1.29617303E-04, ]
force_length_stats: {min:   1.40284543E-29, max:   1.29617303E-04, mean:   8.64115355E-05, }
...

 Integrated electronic density in atomic spheres:
 ------------------------------------------------
 Atom  Sphere_radius  Integrated_density
    1        2.00000         10.50499075
    2        2.00000         10.50499075
    3        2.00000          3.92281662
    4        2.00000          3.92281662
    5        2.00000          3.92281662
    6        2.00000          3.92281662
 
---OUTPUT-----------------------------------------------------------------------
 
 Cartesian coordinates (xcart) [bohr]
  3.01901661939211E+00 -1.74303005789399E+00  6.41914482504069E+00
  3.01901661939211E+00  1.74303005789399E+00  1.92574344751221E+01
  3.01901661939211E+00 -1.74303005789399E+00  1.63104838386029E+01
  3.01901661939211E+00  1.74303005789399E+00  9.36609546155984E+00
  3.01901661939211E+00 -1.74303005789399E+00  2.22043851116412E+01
  3.01901661939211E+00  1.74303005789399E+00  3.47219418852155E+00
 Reduced coordinates (xred)
  6.66666666666666E-01  3.33333333333333E-01  2.50000000000000E-01
  3.33333333333333E-01  6.66666666666666E-01  7.50000000000000E-01
  6.66666666666666E-01  3.33333333333333E-01  6.35228067100805E-01
  3.33333333333333E-01  6.66666666666666E-01  3.64771932899195E-01
  6.66666666666666E-01  3.33333333333333E-01  8.64771932899195E-01
  3.33333333333333E-01  6.66666666666666E-01  1.35228067100805E-01
 Cartesian forces (fcart) [Ha/bohr]; max,rms= 1.29617E-04 6.11022E-05 (free atoms)
 -1.39358562458854E-29 -1.60917407098997E-30  0.00000000000000E+00
  2.50845412425936E-29  2.09192629228696E-29 -1.22891900201988E-31
 -1.39358562458854E-29 -4.82752221296990E-30 -1.29617303200644E-04
  1.39358562458854E-29  4.82752221296990E-30  1.29617303200644E-04
  5.57434249835414E-30 -3.21834814197993E-30  1.29617303200644E-04
 -1.67230274950624E-29 -1.60917407098997E-29 -1.29617303200644E-04
 Gradient of E wrt nuclear positions in reduced coordinates (gred)
  3.36580652894298E-29  5.04870979341447E-29  0.00000000000000E+00
  3.36580652894298E-29 -1.85119359091864E-28  3.15544362088405E-30
  1.68290326447149E-29  6.73161305788597E-29  3.32812896430457E-03
 -1.68290326447149E-29 -6.73161305788597E-29 -3.32812896430457E-03
 -3.36580652894298E-29 -1.75259458142517E-45 -3.32812896430457E-03
 -3.36580652894298E-29  1.34632261157719E-28  3.32812896430457E-03
 Scale of Primitive Cell (acell) [bohr]
  6.03803323878423E+00  6.03803323878423E+00  2.56765793001628E+01
 Real space primitive translations (rprimd) [bohr]
  3.01901661939212E+00 -5.22909017368198E+00  0.00000000000000E+00
  3.01901661939212E+00  5.22909017368198E+00  0.00000000000000E+00
  0.00000000000000E+00  0.00000000000000E+00  2.56765793001628E+01
 Unitary Cell Volume (ucvol) [Bohr^3]=  8.10697429527250E+02
 Angles (23,13,12)= [degrees]
  9.00000000000000E+01  9.00000000000000E+01  1.20000000000000E+02
 Lengths [Bohr]
  6.03803323878423E+00  6.03803323878423E+00  2.56765793001628E+01
 Stress tensor in cartesian coordinates (strten) [Ha/bohr^3]
 -1.78923888454439E-07  0.00000000000000E+00  0.00000000000000E+00
  0.00000000000000E+00 -1.78923888459644E-07  0.00000000000000E+00
  0.00000000000000E+00  0.00000000000000E+00 -3.90543945521203E-06
 Total energy (etotal) [Ha]= -1.84736398064521E+02
 
 Difference of energy with previous step (new-old):
           Absolute (Ha)=-6.11534E-06
           Relative     =-3.31030E-08
 
--- Iteration: (  9/200) Internal Cycle: (1/1)
--------------------------------------------------------------------------------
 
---SELF-CONSISTENT-FIELD CONVERGENCE--------------------------------------------

--- !BeginCycle
iteration_state: {dtset: 2, itime: 9, icycle: 1, }
solver: {iscf: 7, nstep: 100, nline: 4, wfoptalg: 114, }
tolerances: {toldfe: 1.00E-09, }
...
 
     iter   Etot(hartree)      deltaE(h)  residm     vres2
 ETOT  1  -184.73639830653    -1.847E+02 7.930E-09 2.014E-03
 ETOT  2  -184.73639839465    -8.813E-08 9.643E-09 2.143E-04
 ETOT  3  -184.73639836350     3.115E-08 1.557E-08 4.951E-04
 ETOT  4  -184.73639841810    -5.460E-08 8.335E-09 1.612E-06
 ETOT  5  -184.73639841855    -4.421E-10 3.410E-09 1.385E-06
 ETOT  6  -184.73639841864    -9.371E-11 5.350E-09 9.992E-09
 
 At SCF step    6, etot is converged : 
  for the second time, diff in etot=  9.371E-11 < toldfe=  1.000E-09
 
 Cartesian components of stress tensor (hartree/bohr^3)
  sigma(1 1)=  9.47125931E-07  sigma(3 2)=  0.00000000E+00
  sigma(2 2)=  9.47125931E-07  sigma(3 1)=  0.00000000E+00
  sigma(3 3)= -7.34543808E-07  sigma(2 1)=  0.00000000E+00
 

--- !ResultsGS
iteration_state: {dtset: 2, itime: 9, icycle: 1, }
comment   : Summary of ground state results
lattice_vectors:
- [  3.0189464,  -5.2289685,   0.0000000, ]
- [  3.0189464,   5.2289685,   0.0000000, ]
- [  0.0000000,   0.0000000,  25.6836338, ]
lattice_lengths: [   6.03789,    6.03789,   25.68363, ]
lattice_angles: [ 90.000,  90.000, 120.000, ] # degrees, (23, 13, 12)
lattice_volume:   8.1088243E+02
convergence: {deltae: -9.371E-11, res2:  9.992E-09, residm:  5.350E-09, diffor: null, }
etotal    :  -1.84736398E+02
entropy   :   0.00000000E+00
fermie    :   2.46256429E-01
cartesian_stress_tensor: # hartree/bohr^3
- [  9.47125931E-07,   0.00000000E+00,   0.00000000E+00, ]
- [  0.00000000E+00,   9.47125931E-07,   0.00000000E+00, ]
- [  0.00000000E+00,   0.00000000E+00,  -7.34543808E-07, ]
pressure_GPa:  -1.1373E-02
xred      :
- [  6.6667E-01,   3.3333E-01,   2.5000E-01, Mo]
- [  3.3333E-01,   6.6667E-01,   7.5000E-01, Mo]
- [  6.6667E-01,   3.3333E-01,   6.3525E-01,  S]
- [  3.3333E-01,   6.6667E-01,   3.6475E-01,  S]
- [  6.6667E-01,   3.3333E-01,   8.6475E-01,  S]
- [  3.3333E-01,   6.6667E-01,   1.3525E-01,  S]
cartesian_forces: # hartree/bohr
- [  3.71631480E-30,   5.36403838E-30,   0.00000000E+00, ]
- [  9.29078700E-30,  -1.07280768E-29,  -8.19054304E-32, ]
- [  9.29078700E-31,   5.36403838E-31,  -7.15651518E-05, ]
- [ -1.57943379E-29,   3.75482686E-30,   7.15651518E-05, ]
- [ -1.85815740E-30,  -1.07280768E-30,   7.15651518E-05, ]
- [  3.71631480E-30,   2.14561535E-30,  -7.15651518E-05, ]
force_length_stats: {min:   6.52563433E-30, max:   7.15651518E-05, mean:   4.77101012E-05, }
...

 Integrated electronic density in atomic spheres:
 ------------------------------------------------
 Atom  Sphere_radius  Integrated_density
    1        2.00000         10.50551331
    2        2.00000         10.50551331
    3        2.00000          3.93060329
    4        2.00000          3.93060329
    5        2.00000          3.93060329
    6        2.00000          3.93060329
 
---OUTPUT-----------------------------------------------------------------------
 
 Cartesian coordinates (xcart) [bohr]
  3.01894637444730E+00 -1.74298950195620E+00  6.42090845240174E+00
  3.01894637444730E+00  1.74298950195620E+00  1.92627253572052E+01
  3.01894637444730E+00 -1.74298950195620E+00  1.63154142721828E+01
  3.01894637444730E+00  1.74298950195620E+00  9.36821953742421E+00
  3.01894637444730E+00 -1.74298950195620E+00  2.22100364422277E+01
  3.01894637444730E+00  1.74298950195620E+00  3.47359736737927E+00
 Reduced coordinates (xred)
  6.66666666666666E-01  3.33333333333333E-01  2.50000000000000E-01
  3.33333333333333E-01  6.66666666666666E-01  7.50000000000000E-01
  6.66666666666666E-01  3.33333333333333E-01  6.35245557273130E-01
  3.33333333333333E-01  6.66666666666666E-01  3.64754442726871E-01
  6.66666666666666E-01  3.33333333333333E-01  8.64754442726870E-01
  3.33333333333333E-01  6.66666666666666E-01  1.35245557273129E-01
 Cartesian forces (fcart) [Ha/bohr]; max,rms= 7.15652E-05 3.37361E-05 (free atoms)
  3.71631480156072E-30  5.36403837768619E-30  0.00000000000000E+00
  9.29078700390181E-30 -1.07280767553724E-29 -8.19054303679763E-32
  9.29078700390181E-31  5.36403837768618E-31 -7.15651517770507E-05
 -1.57943379066331E-29  3.75482686438033E-30  7.15651517770507E-05
 -1.85815740078036E-30 -1.07280767553724E-30  7.15651517770507E-05
  3.71631480156072E-30  2.14561535107447E-30 -7.15651517770507E-05
 Gradient of E wrt nuclear positions in reduced coordinates (gred)
  1.68290326447149E-29 -3.92677428376681E-29  0.00000000000000E+00
 -8.41451632235746E-29  2.80483877411915E-29  2.10362908058936E-30
 -1.70828772185283E-45 -5.60967754823831E-30  1.83805315177071E-03
  6.73161305788597E-29  2.80483877411915E-29 -1.83805315177071E-03
 -2.20189317630238E-45  1.12193550964766E-29 -1.83805315177071E-03
 -5.14033035240867E-46 -2.24387101929532E-29  1.83805315177071E-03
 Scale of Primitive Cell (acell) [bohr]
[...]
 
 ----iterations are completed or convergence reached----
 
 Mean square residual over all n,k,spin=   15.024E-12; max=  21.133E-10
 reduced coordinates (array xred) for    6 atoms
       0.666666666667      0.333333333333      0.250000000000
       0.333333333333      0.666666666667      0.750000000000
       0.666666666667      0.333333333333      0.635231266499
       0.333333333333      0.666666666667      0.364768733501
       0.666666666667      0.333333333333      0.864768733501
       0.333333333333      0.666666666667      0.135231266499
 rms dE/dt=  5.7445E-06; max dE/dt=  1.2186E-05; dE/dt below (all hartree)
    1       0.000000000000      0.000000000000      0.000000000000
    2       0.000000000000      0.000000000000      0.000000000000
    3       0.000000000000      0.000000000000      0.000012185863
    4      -0.000000000000     -0.000000000000     -0.000012185863
    5       0.000000000000      0.000000000000     -0.000012185863
    6       0.000000000000     -0.000000000000      0.000012185863
 
 cartesian coordinates (angstrom) at end:
    1      1.59741489298649    -0.92226791847327     3.39800860377346
    2      1.59741489298649     0.92226791847327    10.19402581132039
    3      1.59741489298649    -0.92226791847327     8.63408523579482
    4      1.59741489298649     0.92226791847327     4.95794917929904
    5      1.59741489298649    -0.92226791847327    11.75396638684597
    6      1.59741489298649     0.92226791847327     1.83806802824789
 
 cartesian forces (hartree/bohr) at end:
    1     -0.00000000000000     0.00000000000000    -0.00000000000000
    2     -0.00000000000000    -0.00000000000000    -0.00000000000000
    3     -0.00000000000000    -0.00000000000000    -0.00000047443090
    4      0.00000000000000     0.00000000000000     0.00000047443090
    5     -0.00000000000000    -0.00000000000000     0.00000047443090
    6      0.00000000000000     0.00000000000000    -0.00000047443090
 frms,max,avg= 2.2364887E-07 4.7443090E-07   0.000E+00  0.000E+00  0.000E+00 h/b
 
 cartesian forces (eV/Angstrom) at end:
    1     -0.00000000000000     0.00000000000000    -0.00000000000000
    2     -0.00000000000000    -0.00000000000000    -0.00000000000000
    3     -0.00000000000000    -0.00000000000000    -0.00002439621558
    4      0.00000000000000     0.00000000000000     0.00002439621558
    5     -0.00000000000000    -0.00000000000000     0.00002439621558
    6      0.00000000000000     0.00000000000000    -0.00002439621558
 frms,max,avg= 1.1500486E-05 2.4396216E-05   0.000E+00  0.000E+00  0.000E+00 e/A
 length scales=  6.037353336675  6.037353336675 25.685222633284 bohr
              =  3.194829785973  3.194829785973 13.592034415094 angstroms
 prteigrs : about to open file abo_DS2_EIG
 Fermi (or HOMO) energy (hartree) =   0.24625   Average Vxc (hartree)=  -0.37286
 Eigenvalues (hartree) for nkpt=   8  k points:
 kpt#   1, nband= 27, wtk=  0.02041, kpt=  0.0000  0.0000  0.0000 (reduced coord)
  -2.00350   -2.00339   -1.05437   -1.05426   -1.04645   -1.04645   -1.04642   -1.04642
  -0.28577   -0.28313   -0.23917   -0.23460    0.01930    0.03462    0.13476    0.13476
   0.13488    0.13488    0.14805    0.17485    0.17485    0.17514    0.17514    0.19075
   0.22142    0.24625    0.33134
 prteigrs : prtvol=0 or 1, do not print more k-points.
 

--- !EnergyTerms
iteration_state     : {dtset: 2, itime: 11, icycle: 1, }
comment             : Components of total free energy in Hartree
kinetic             :  5.95974849812192E+01
hartree             :  6.93273346420952E+01
xc                  : -3.33123926296267E+01
Ewald energy        : -1.01069097895725E+02
psp_core            :  4.36034096588301E+00
local_psp           : -2.07001779088050E+02
non_local_psp       :  2.33617104667460E+01
total_energy        : -1.84736398557459E+02
total_energy_eV     : -5.02693305406096E+03
band_energy         : -1.89241653202786E+01
...

 rms coord change=  1.0132E-03   atom, delta coord (reduced):
     1        0.000000000000     -0.000000000000      0.000000000000
     2       -0.000000000000      0.000000000000      0.000000000000
     3        0.000000000000     -0.000000000000      0.002149266499
     4       -0.000000000000      0.000000000000     -0.002149266499
     5        0.000000000000     -0.000000000000     -0.002149266499
     6       -0.000000000000      0.000000000000      0.002149266499
 
 Cartesian components of stress tensor (hartree/bohr^3)
  sigma(1 1)= -3.13569972E-08  sigma(3 2)=  0.00000000E+00
  sigma(2 2)= -3.13569972E-08  sigma(3 1)=  0.00000000E+00
  sigma(3 3)=  4.47406900E-08  sigma(2 1)=  0.00000000E+00
 
-Cartesian components of stress tensor (GPa)         [Pressure=  1.7626E-04 GPa]
- sigma(1 1)= -9.22554554E-04  sigma(3 2)=  0.00000000E+00
- sigma(2 2)= -9.22554555E-04  sigma(3 1)=  0.00000000E+00
- sigma(3 3)=  1.31631632E-03  sigma(2 1)=  0.00000000E+00
 
== END DATASET(S) ==============================================================
================================================================================
  
 -outvars: echo values of variables after computation  --------
-          iomode           1
            acell1     1.8897261329E+00  1.8897261329E+00  1.8897261329E+00 Bohr
            acell2     6.0373533367E+00  6.0373533367E+00  2.5685222633E+01 Bohr
              amu      9.59400000E+01  3.20660000E+01
     densfor_pred           6
           diemac      1.20000000E+01
          dilatmx1     1.00000000E+00
          dilatmx2     1.10000000E+00
             ecut      2.00000000E+01 Hartree
           ecutsm      5.00000000E-01 Hartree
           etotal1    -1.8473578267E+02
           etotal2    -1.8473639856E+02
            fcart1     3.0687232091E-29  9.1270845166E-30  0.0000000000E+00
                      -8.3692451158E-30 -5.3688732450E-31  1.6641771586E-31
                       8.3692451158E-30  1.2348408464E-29  1.3941385660E-03
                      -2.7897483719E-30 -6.9795352185E-30 -1.3941385660E-03
                      -1.3948741860E-29 -2.6307478901E-29 -1.3941385660E-03
                      -1.3948741860E-29  1.2348408464E-29  1.3941385660E-03
            fcart2    -1.5795749065E-29  4.8280658688E-30 -8.8232598672E-24
                      -4.6458085484E-30 -1.6093552896E-30 -8.8232598672E-24
                      -2.1370719323E-29 -1.4484197606E-29 -4.7443089722E-07
                       3.4378983258E-29  4.8280658688E-30  4.7443089722E-07
                      -1.0220778806E-29 -4.8280658688E-30  4.7443089722E-07
                       1.7654072484E-29  1.1265487027E-29 -4.7443089722E-07
-          fftalg         401
           ionmov1          0
           ionmov2          2
           istwfk        2    0    0    0    0    0    0    0
              ixc          11
           jdtset        1    2
              kpt      0.00000000E+00  0.00000000E+00  0.00000000E+00
                       1.42857143E-01  0.00000000E+00  0.00000000E+00
                       2.85714286E-01  0.00000000E+00  0.00000000E+00
                       4.28571429E-01  0.00000000E+00  0.00000000E+00
                       1.42857143E-01  1.42857143E-01  0.00000000E+00
                       2.85714286E-01  1.42857143E-01  0.00000000E+00
                       4.28571429E-01  1.42857143E-01  0.00000000E+00
                       2.85714286E-01  2.85714286E-01  0.00000000E+00
         kptrlatt        7    0    0      0    7    0      0    0    1
          kptrlen      2.52813118E+01
P           mkmem           2
            natom           6
            nband          27
           ndtset           2
            ngfft1         30      30     108
            ngfft2         30      30     120
             nkpt           8
    nblock_lobpcg           3
-          npband           9
-           npfft           2
-        np_spkpt           7
            nstep         100
             nsym          24
            ntime1          1
            ntime2        200
           ntypat           2
              occ      2.000000  2.000000  2.000000  2.000000  2.000000  2.000000
                       2.000000  2.000000  2.000000  2.000000  2.000000  2.000000
                       2.000000  2.000000  2.000000  2.000000  2.000000  2.000000
                       2.000000  2.000000  2.000000  2.000000  2.000000  2.000000
                       2.000000  2.000000  0.000000
          optcell1          0
          optcell2          2
           ortalg          -2
        paral_kgb           1
           prtden           0
        prtposcar           1
            prtwf           0
            rprim1     1.5961189561E+00 -2.7645591268E+00  0.0000000000E+00
                       1.5961189561E+00  2.7645591268E+00  0.0000000000E+00
                       0.0000000000E+00  0.0000000000E+00  1.3378294000E+01
            rprim2     5.0000000000E-01 -8.6602540378E-01  0.0000000000E+00
                       5.0000000000E-01  8.6602540378E-01  0.0000000000E+00
                       0.0000000000E+00  0.0000000000E+00  1.0000000000E+00
          spgroup         194
           strten1    -2.9984749844E-05 -2.9984749844E-05 -1.7773043338E-05
                       0.0000000000E+00  0.0000000000E+00  0.0000000000E+00
           strten2    -3.1356997233E-08 -3.1356997238E-08  4.4740689999E-08
                       0.0000000000E+00  0.0000000000E+00  0.0000000000E+00
           symrel      1  0  0   0  1  0   0  0  1      -1  0  0   0 -1  0   0  0 -1
                       0  1  0   1  0  0   0  0  1       0 -1  0  -1  0  0   0  0 -1
                       1  1  0  -1  0  0   0  0  1      -1 -1  0   1  0  0   0  0 -1
                      -1  0  0   1  1  0   0  0  1       1  0  0  -1 -1  0   0  0 -1
                       0  1  0  -1 -1  0   0  0  1       0 -1  0   1  1  0   0  0 -1
                      -1 -1  0   0  1  0   0  0  1       1  1  0   0 -1  0   0  0 -1
                      -1  0  0   0 -1  0   0  0  1       1  0  0   0  1  0   0  0 -1
                       0 -1  0  -1  0  0   0  0  1       0  1  0   1  0  0   0  0 -1
                      -1 -1  0   1  0  0   0  0  1       1  1  0  -1  0  0   0  0 -1
                       1  0  0  -1 -1  0   0  0  1      -1  0  0   1  1  0   0  0 -1
                       0 -1  0   1  1  0   0  0  1       0  1  0  -1 -1  0   0  0 -1
                       1  1  0   0 -1  0   0  0  1      -1 -1  0   0  1  0   0  0 -1
            tnons      0.0000000  0.0000000  0.0000000    -0.0000000 -0.0000000  0.0000000
                       0.0000000  0.0000000  0.5000000    -0.0000000 -0.0000000  0.5000000
                       0.0000000  0.0000000  0.5000000    -0.0000000 -0.0000000  0.5000000
                      -0.0000000  0.0000000  0.0000000     0.0000000 -0.0000000  0.0000000
                      -0.0000000  0.0000000  0.0000000     0.0000000 -0.0000000  0.0000000
                      -0.0000000 -0.0000000  0.5000000     0.0000000  0.0000000  0.5000000
                      -0.0000000 -0.0000000  0.5000000     0.0000000  0.0000000  0.5000000
                      -0.0000000 -0.0000000  0.0000000     0.0000000  0.0000000  0.0000000
                      -0.0000000 -0.0000000  0.0000000     0.0000000  0.0000000  0.0000000
                       0.0000000 -0.0000000  0.5000000    -0.0000000  0.0000000  0.5000000
                       0.0000000 -0.0000000  0.5000000    -0.0000000  0.0000000  0.5000000
                       0.0000000  0.0000000  0.0000000    -0.0000000 -0.0000000  0.0000000
           toldfe      1.00000000E-09 Hartree
           tolmxf1     5.00000000E-05
           tolmxf2     1.00000000E-05
           tolsym      1.00000000E-08
            typat      1  1  2  2  2  2
         wfoptalg         114
              wtk        0.02041    0.12245    0.12245    0.12245    0.12245    0.24490
                         0.12245    0.12245
           xangst1     1.5961189561E+00 -9.2151970894E-01  3.3445735000E+00
                       1.5961189561E+00  9.2151970894E-01  1.0033720500E+01
                       1.5961189561E+00 -9.2151970894E-01  8.4695571221E+00
                       1.5961189561E+00  9.2151970894E-01  4.9087368779E+00
                       1.5961189561E+00 -9.2151970894E-01  1.1597883878E+01
                       1.5961189561E+00  9.2151970894E-01  1.7804101221E+00
           xangst2     1.5974148930E+00 -9.2226791847E-01  3.3980086038E+00
                       1.5974148930E+00  9.2226791847E-01  1.0194025811E+01
                       1.5974148930E+00 -9.2226791847E-01  8.6340852358E+00
                       1.5974148930E+00  9.2226791847E-01  4.9579491793E+00
                       1.5974148930E+00 -9.2226791847E-01  1.1753966387E+01
                       1.5974148930E+00  9.2226791847E-01  1.8380680282E+00
            xcart1     3.0162277025E+00 -1.7414198760E+00  6.3203279463E+00
                       3.0162277025E+00  1.7414198760E+00  1.8960983839E+01
                       3.0162277025E+00 -1.7414198760E+00  1.6005143428E+01
                       3.0162277025E+00  1.7414198760E+00  9.2761683576E+00
                       3.0162277025E+00 -1.7414198760E+00  2.1916824250E+01
                       3.0162277025E+00  1.7414198760E+00  3.3644875350E+00
            xcart2     3.0186766683E+00 -1.7428337871E+00  6.4213056583E+00
                       3.0186766683E+00  1.7428337871E+00  1.9263916975E+01
                       3.0186766683E+00 -1.7428337871E+00  1.6316056504E+01
                       3.0186766683E+00  1.7428337871E+00  9.3691661296E+00
                       3.0186766683E+00 -1.7428337871E+00  2.2211777446E+01
                       3.0186766683E+00  1.7428337871E+00  3.4734451870E+00
             xred1     6.6666666667E-01  3.3333333333E-01  2.5000000000E-01
                       3.3333333333E-01  6.6666666667E-01  7.5000000000E-01
                       6.6666666667E-01  3.3333333333E-01  6.3308200000E-01
                       3.3333333333E-01  6.6666666667E-01  3.6691800000E-01
                       6.6666666667E-01  3.3333333333E-01  8.6691800000E-01
                       3.3333333333E-01  6.6666666667E-01  1.3308200000E-01
             xred2     6.6666666667E-01  3.3333333333E-01  2.5000000000E-01
                       3.3333333333E-01  6.6666666667E-01  7.5000000000E-01
                       6.6666666667E-01  3.3333333333E-01  6.3523126650E-01
                       3.3333333333E-01  6.6666666667E-01  3.6476873350E-01
                       6.6666666667E-01  3.3333333333E-01  8.6476873350E-01
                       3.3333333333E-01  6.6666666667E-01  1.3523126650E-01
            znucl       42.00000   16.00000
 
================================================================================


- Timing analysis has been suppressed with timopt=0



================================================================================

 Suggested references for the acknowledgment of ABINIT usage.

 The users of ABINIT have little formal obligations with respect to the ABINIT group
 (those specified in the GNU General Public License, http://www.gnu.org/copyleft/gpl.txt).
 However, it is common practice in the scientific literature,
 to acknowledge the efforts of people that have made the research possible.
 In this spirit, please find below suggested citations of work written by ABINIT developers,
 corresponding to implementations inside of ABINIT that you have used in the present run.
 Note also that it will be of great value to readers of publications presenting these results,
 to read papers enabling them to understand the theoretical formalism and details
 of the ABINIT implementation.
 For information on why they are suggested, see also https://docs.abinit.org/theory/acknowledgments.
-
- [1] Large scale ab initio calculations based on three levels of parallelization
- F. Bottin, S. Leroux, A. Knyazev, G. Zerah, Comput. Mat. Science 42, 329, (2008).
- Comment: in case LOBPCG algorithm is used (wfoptalg=4/14/114).
- Strong suggestion to cite this paper in your publications.
- This paper is also available at http://www.arxiv.org/abs/0707.3405
- DOI and bibtex: see https://docs.abinit.org/theory/bibliography/#bottin2008
-
- [2] The Abinit project: Impact, environment and recent developments.
- Computer Phys. Comm. 248, 107042 (2020).
- X.Gonze, B. Amadon, G. Antonius, F.Arnardi, L.Baguet, J.-M.Beuken,
- J.Bieder, F.Bottin, J.Bouchet, E.Bousquet, N.Brouwer, F.Bruneval,
- G.Brunin, T.Cavignac, J.-B. Charraud, Wei Chen, M.Cote, S.Cottenier,
- J.Denier, G.Geneste, Ph.Ghosez, M.Giantomassi, Y.Gillet, O.Gingras,
- D.R.Hamann, G.Hautier, Xu He, N.Helbig, N.Holzwarth, Y.Jia, F.Jollet,
- W.Lafargue-Dit-Hauret, K.Lejaeghere, M.A.L.Marques, A.Martin, C.Martins,
- H.P.C. Miranda, F.Naccarato, K. Persson, G.Petretto, V.Planes, Y.Pouillon,
- S.Prokhorenko, F.Ricci, G.-M.Rignanese, A.H.Romero, M.M.Schmitt, M.Torrent,
- M.J.van Setten, B.Van Troeye, M.J.Verstraete, G.Zerah and J.W.Zwanzig
- Comment: the fifth generic paper describing the ABINIT project.
- Note that a version of this paper, that is not formatted for Computer Phys. Comm. 
- is available at https://www.abinit.org/sites/default/files/ABINIT20.pdf .
- The licence allows the authors to put it on the Web.
- DOI and bibtex: see https://docs.abinit.org/theory/bibliography/#gonze2020
-
- [3] Optimized norm-conserving Vanderbilt pseudopotentials.
- D.R. Hamann, Phys. Rev. B 88, 085117 (2013).
- Comment: Some pseudopotential generated using the ONCVPSP code were used.
- DOI and bibtex: see https://docs.abinit.org/theory/bibliography/#hamann2013
-
- [4] ABINIT: Overview, and focus on selected capabilities
- J. Chem. Phys. 152, 124102 (2020).
- A. Romero, D.C. Allan, B. Amadon, G. Antonius, T. Applencourt, L.Baguet,
- J.Bieder, F.Bottin, J.Bouchet, E.Bousquet, F.Bruneval,
- G.Brunin, D.Caliste, M.Cote,
- J.Denier, C. Dreyer, Ph.Ghosez, M.Giantomassi, Y.Gillet, O.Gingras,
- D.R.Hamann, G.Hautier, F.Jollet, G. Jomard,
- A.Martin, 
- H.P.C. Miranda, F.Naccarato, G.Petretto, N.A. Pike, V.Planes,
- S.Prokhorenko, T. Rangel, F.Ricci, G.-M.Rignanese, M.Royo, M.Stengel, M.Torrent,
- M.J.van Setten, B.Van Troeye, M.J.Verstraete, J.Wiktor, J.W.Zwanziger, and X.Gonze.
- Comment: a global overview of ABINIT, with focus on selected capabilities .
- Note that a version of this paper, that is not formatted for J. Chem. Phys 
- is available at https://www.abinit.org/sites/default/files/ABINIT20_JPC.pdf .
- The licence allows the authors to put it on the Web.
- DOI and bibtex: see https://docs.abinit.org/theory/bibliography/#romero2020
-
- [5] Recent developments in the ABINIT software package.
- Computer Phys. Comm. 205, 106 (2016).
- X.Gonze, F.Jollet, F.Abreu Araujo, D.Adams, B.Amadon, T.Applencourt,
- C.Audouze, J.-M.Beuken, J.Bieder, A.Bokhanchuk, E.Bousquet, F.Bruneval
- D.Caliste, M.Cote, F.Dahm, F.Da Pieve, M.Delaveau, M.Di Gennaro,
- B.Dorado, C.Espejo, G.Geneste, L.Genovese, A.Gerossier, M.Giantomassi,
- Y.Gillet, D.R.Hamann, L.He, G.Jomard, J.Laflamme Janssen, S.Le Roux,
- A.Levitt, A.Lherbier, F.Liu, I.Lukacevic, A.Martin, C.Martins,
- M.J.T.Oliveira, S.Ponce, Y.Pouillon, T.Rangel, G.-M.Rignanese,
- A.H.Romero, B.Rousseau, O.Rubel, A.A.Shukri, M.Stankovski, M.Torrent,
- M.J.Van Setten, B.Van Troeye, M.J.Verstraete, D.Waroquier, J.Wiktor,
- B.Xu, A.Zhou, J.W.Zwanziger.
- Comment: the fourth generic paper describing the ABINIT project.
- Note that a version of this paper, that is not formatted for Computer Phys. Comm. 
- is available at https://www.abinit.org/sites/default/files/ABINIT16.pdf .
- The licence allows the authors to put it on the Web.
- DOI and bibtex: see https://docs.abinit.org/theory/bibliography/#gonze2016
-
- Proc.   0 individual time (sec): cpu=         58.2  wall=         62.8
 
================================================================================
 
 Calculation completed.
.Delivered   0 WARNINGs and  11 COMMENTs to log file.
+Overall time at end (sec) : cpu=       7669.6  wall=       7900.5
