CRYSTAL
# Primitive lattice vectors in Angstrom
PRIMVEC
 5.29177211000000 0.00000000000000 0.00000000000000
 0.00000000000000 5.29177211000000 0.00000000000000
 0.00000000000000 0.00000000000000 5.29177211000000
# Cartesian coordinates in Angstrom.
PRIMCOORD
 2 1
H     4.92134806230000     0.00000000000000     0.00000000000000
H     0.37042404770000     0.00000000000000     0.00000000000000