LAMMPS data file via write_data, version 29 Aug 2024, timestep = 13, units = metal

511 atoms
1 atom types

0 21.724 xlo xhi
0 21.724 ylo yhi
0 21.724 zlo zhi

Masses

1 28.06

Atoms # atomic

1 1 21.719070442509082 21.718986481428914 0.00033027753639558455 -1 -1 0
2 1 21.718233719056048 2.7105333320041405 2.7145003964857044 -1 0 0
3 1 2.7101599377873673 21.718587361957393 2.7152315147154797 0 -1 0
4 1 2.71088355955866 2.709808580422211 0.00011756481685950681 0 0 0
5 1 1.3531288164227624 1.352512367390826 1.357613898174873 0 0 0
6 1 1.351156499157377 4.067742767228151 4.07265820851296 0 0 0
7 1 4.06704845428204 1.3533655609005886 4.0736092355375755 0 0 0
8 1 4.068064995943667 4.067565617100195 1.3588956658396558 0 0 0
9 1 5.427018287554318 21.719869907601552 0.0020375894393313567 0 -1 0
10 1 5.426450398290786 2.7113797555634873 2.717218099566184 0 0 0
11 1 8.142267191765699 21.721769258891758 2.718652745819344 0 -1 0
12 1 8.142794849859254 2.7126947861911215 0.002014346732978094 0 0 0
13 1 6.785134798406642 1.3543440906386701 1.359258187784661 0 0 0
14 1 6.784372114217827 4.070784107583673 4.074215623445754 0 0 0
15 1 9.500781931448081 1.356520881099169 4.075305342534628 0 0 0
16 1 9.499928672507854 4.071763164017768 1.359915702725366 0 0 0
17 1 10.856625528684704 21.723448666037513 0.0020843567891386744 0 -1 0
18 1 10.858377671094406 2.7148452232317273 2.7178727102014113 0 0 0
19 1 13.571859187540383 0.00044431008954376396 2.719536831595854 0 0 0
20 1 13.572230631259371 2.7162684989951917 0.0016022938724670282 0 0 0
21 1 12.21520427183958 1.357452542020175 1.359821841010797 0 0 0
22 1 12.21414871213977 4.074340169801422 4.075595252270177 0 0 0
23 1 14.929376038702454 1.3585536712574267 4.076859046615122 0 0 0
24 1 14.928794418938654 4.073357237966258 1.3609319000881037 0 0 0
25 1 16.28722474389565 0.0004584186653424638 0.001140134899290093 0 0 0
26 1 16.28639713982961 2.71482446926572 2.7177363116287947 0 0 0
27 1 19.00155054218769 21.721699406094768 2.7159404197675485 0 -1 0
28 1 19.002847292949927 2.712325386637944 21.723369006390303 0 0 -1
29 1 17.6444802517686 1.3576331105586303 1.359212186347065 0 0 0
30 1 17.645137013043765 4.072601352346612 4.0749074169653845 0 0 0
31 1 20.35932435598273 1.355501358746712 4.073962016027719 0 0 0
32 1 20.360846336232687 4.0687224593877795 1.3572559345264654 0 0 0
33 1 21.719532949914818 5.425950802864079 0.00038942480106385347 -1 0 0
34 1 21.71714253204084 8.14200684895819 2.7136070641768386 -1 0 0
35 1 2.7095285796303887 5.424788780867742 2.71557359851303 0 0 0
36 1 2.7103044457156913 8.14309955978257 0.00019183109831288903 0 0 0
37 1 1.3533101717200147 6.784090598250471 1.3576327812757676 0 0 0
38 1 1.349561854231674 9.499511813269576 4.072380238356877 0 0 0
39 1 4.066548144636884 6.783437305841049 4.071952609012053 0 0 0
40 1 4.06608989252194 9.502397976379688 1.3575688207634622 0 0 0
41 1 5.426158833177002 5.426273338391505 0.0024149530762751312 0 0 0
42 1 5.4231455981149965 8.143354953966163 2.7152309428278754 0 0 0
43 1 8.141524854026542 5.429496499852015 2.716792874030582 0 0 0
44 1 8.139888213395652 8.145545659624696 0.003040543899985186 0 0 0
45 1 6.782204493002584 6.786032715763018 1.3595551862715833 0 0 0
46 1 6.779544829703552 9.503010363535338 4.072623982546948 0 0 0
47 1 9.497847468064041 6.7894652845351695 4.0729795845049654 0 0 0
48 1 9.497251601906218 9.504770680424695 1.3597866640151983 0 0 0
49 1 10.857217488709756 5.431656350339514 0.003549211115753792 0 0 0
50 1 10.856644140337012 8.14753725849457 2.716783588042276 0 0 0
51 1 13.572236797509962 5.432118619650451 2.718314199863952 0 0 0
52 1 13.5718082927323 8.149470024613237 0.002863902116885697 0 0 0
53 1 12.214902297654284 6.789883070283261 1.3603189585436097 0 0 0
54 1 12.214626753185856 9.505408723545234 4.073847767566401 0 0 0
55 1 14.930466974024972 6.7906852878996515 4.074728251937518 0 0 0
56 1 14.930774499776378 9.506692141421512 1.3600285463964172 0 0 0
57 1 16.28633538927207 5.4303363481001705 0.0019363143660271476 0 0 0
58 1 16.287889178272852 8.14621754066684 2.7155201508344082 0 0 0
59 1 19.00332648388071 5.427230902484616 2.7152138393012124 0 0 0
60 1 19.0027503407571 8.144396922191927 0.0008243048181892386 0 0 0
61 1 17.645436924221432 6.786693139091366 1.3591237197126562 0 0 0
62 1 17.64470012280366 9.504048468019455 4.072952206307493 0 0 0
63 1 20.360538598903585 6.785349437319095 4.073073756224851 0 0 0
64 1 20.359648598588564 9.502806048245255 1.3577706219312495 0 0 0
65 1 21.71693356055463 10.859661756357553 21.7231524272664 -1 0 -1
66 1 21.714989295063372 13.575009778785255 2.714528423994791 -1 0 0
67 1 2.7066346759898656 10.858280107269223 2.714859736685871 0 0 0
68 1 2.7088730495841755 13.57510469574666 0.001713379776369095 0 0 0
69 1 1.349697679929796 12.21694748936074 1.3577913009507305 0 0 0
70 1 1.3491190301191807 14.931964036226178 4.072512871025861 0 0 0
71 1 4.063680320222769 12.216685957994814 4.072735893402746 0 0 0
72 1 4.066650197259634 14.933251548200701 1.3587373030782277 0 0 0
73 1 5.424006489260138 10.861418770625173 0.0011944707295805394 0 0 0
74 1 5.422860858021719 13.576133632262845 2.717581959708042 0 0 0
75 1 8.138764261315151 10.86132296815587 2.7170074614724324 0 0 0
76 1 8.13871436401791 13.577743119846154 0.002125426464538554 0 0 0
77 1 6.780744025724114 12.219311630253973 1.3598401478197848 0 0 0
78 1 6.781333861977474 14.933486581033755 4.075156989408248 0 0 0
79 1 9.496940392020015 12.218885097357383 4.074040317079451 0 0 0
80 1 9.497250405843175 14.934998834562794 1.3594738231295986 0 0 0
81 1 10.854824171724289 10.864251268716298 0.003144564223654101 0 0 0
82 1 10.854755181669507 13.577912857793786 2.7182514228721635 0 0 0
83 1 13.571761049026568 10.863840799545285 2.717069424167032 0 0 0
84 1 13.571120127130609 13.5793229967378 0.0023304316196224306 0 0 0
85 1 12.213579034919434 12.221908854733098 1.3602511006229936 0 0 0
86 1 12.212742245323268 14.935258476306979 4.0768582372644495 0 0 0
87 1 14.92970584095094 12.220568456164646 4.075455652894974 0 0 0
88 1 14.927732335663004 14.93730545394131 1.3609611044171555 0 0 0
89 1 16.28772983269995 10.864098600441713 0.00205940890550238 0 0 0
90 1 16.28574188388751 13.579038258001185 2.7174436460360836 0 0 0
91 1 19.001677740307542 10.861758138366408 2.714866857899327 0 0 0
92 1 18.999566329183107 13.578388749812781 0.0003292900158307077 0 0 0
93 1 17.643530941902533 12.22173565605384 1.359679209010668 0 0 0
94 1 17.643671787606568 14.936493112837226 4.0748331899587145 0 0 0
95 1 20.357714179446262 12.21870583266959 4.073427472510331 0 0 0
96 1 20.35848121903518 14.934599297437332 1.356945741351407 0 0 0
97 1 21.71762070059905 16.290267745957404 21.722876208375933 -1 0 -1
98 1 21.718025445250838 19.004421418915793 2.715845071608877 -1 0 0
99 1 2.7081549009467087 16.290049042664393 2.7161066664107603 0 0 0
100 1 2.711404779276178 19.003387075564355 21.72326328216352 0 0 -1
101 1 1.3518840863020822 17.647126341041854 1.3568889646414541 0 0 0
102 1 1.350407832664794 20.363761597688285 4.073587659874058 0 0 0
103 1 4.065086236185885 17.64784989462558 4.075463953494687 0 0 0
104 1 4.068686050377591 20.361139149024226 1.358542656642528 0 0 0
105 1 5.425497036772119 16.291176034703977 0.0018341870395310877 0 0 0
106 1 5.424798668370549 19.005010532475787 2.71877032486213 0 0 0
107 1 8.140951509097848 16.291984522043293 2.718762334817057 0 0 0
108 1 8.140113657469778 19.0064547748095 0.0022380460364917407 0 0 0
109 1 6.782970100672466 17.648053979698023 1.3606187601439246 0 0 0
110 1 6.7833177243233775 20.36428182471115 4.075769070412203 0 0 0
111 1 9.498043889108814 17.651209650870438 4.075755077528381 0 0 0
112 1 9.499070169214185 20.36442315998764 1.3597966763318192 0 0 0
113 1 10.855508080847704 16.29327567197707 0.0018148581397464914 0 0 0
114 1 10.857233581981651 19.009066654859517 2.7188745454544927 0 0 0
115 1 13.569984775297838 16.293795357416037 2.7196323533557893 0 0 0
116 1 13.571220425352283 19.00890846435505 0.0025038204447238926 0 0 0
117 1 12.213610976528644 17.650780240869572 1.3606773607818206 0 0 0
118 1 12.214470150060283 20.36670471684653 4.077014348909563 0 0 0
119 1 14.928259245473232 17.65222302466448 4.0762909888057175 0 0 0
120 1 14.928871272288704 20.367295584964907 1.3600853764124128 0 0 0
121 1 16.284750674250976 16.2943066579372 0.0013403249801839934 0 0 0
122 1 16.2858634398669 19.00956189038899 2.717746196091998 0 0 0
123 1 19.00113623643361 16.2932413100797 2.714777753668029 0 0 0
124 1 19.00094560654127 19.006430403559055 21.723080252584495 0 0 -1
125 1 17.642347349687544 17.651077298990742 1.3584384448417495 0 0 0
126 1 17.643290643861587 20.366767098535735 4.076275893473084 0 0 0
127 1 20.358511712858274 17.6493093370447 4.0741773652961575 0 0 0
128 1 20.359342257401476 20.362354788153144 1.358244788057831 0 0 0
129 1 21.717212080368427 21.72220427937542 5.431576534017082 -1 -1 0
130 1 21.717452805291654 2.7134797399928505 8.147697518090942 -1 0 0
131 1 2.7088190321801675 21.72237811457056 8.147573337019468 0 -1 0
132 1 2.70856304348256 2.7108373454100008 5.431159914012225 0 0 0
133 1 1.3503623468773867 1.3552058375265752 6.789420171597423 0 0 0
134 1 1.3512951959484591 4.070733896450724 9.505420043699369 0 0 0
135 1 4.067851910100524 1.356891884208032 9.504588052069558 0 0 0
136 1 4.066543429376734 4.06976529759583 6.787968715016552 0 0 0
137 1 5.425689189589586 21.72286988912186 5.4334059944341835 0 -1 0
138 1 5.425729482098278 2.7160125328534592 8.147650413505056 0 0 0
139 1 8.142494410772406 0.0014169790521236791 8.148864975650577 0 0 0
140 1 8.14267681594929 2.714592684744832 5.432987426073957 0 0 0
141 1 6.78405887570484 1.3577524750892123 6.790972268409649 0 0 0
142 1 6.784326511491719 4.074177113547585 9.504946307500504 0 0 0
143 1 9.501707461293154 1.3610946512258424 9.50488682312036 0 0 0
144 1 9.499188423217584 4.0747303849642185 6.790222395716864 0 0 0
145 1 10.8579442298626 0.0008228277267683382 5.434772072218578 0 0 0
146 1 10.85900753642902 2.720090480398034 8.148838184517759 0 0 0
147 1 13.573688586574239 0.003358387060735879 8.150684812660046 0 0 0
148 1 13.572755000316677 2.7181719919698635 5.434437433684668 0 0 0
149 1 12.215734064994969 1.3601683729029765 6.792173860539972 0 0 0
150 1 12.21565112740737 4.0789876331191675 9.507413431996882 0 0 0
151 1 14.931365912924944 1.3621728592896416 9.509430022540592 0 0 0
152 1 14.92978374354091 4.0777300418200175 6.792716216519472 0 0 0
153 1 16.287490091529154 0.002067119048977162 5.434437338531451 0 0 0
154 1 16.28839203157479 2.72009197096916 8.151139663761503 0 0 0
155 1 19.002640388117943 0.0010591681401310427 8.149398451223234 0 0 0
156 1 19.00206476204522 2.714189526196825 5.43304263069879 0 0 0
157 1 17.644695973278115 1.35953064241085 6.793483944104451 0 0 0
158 1 17.645814247386596 4.0764396902027515 9.51048766538888 0 0 0
159 1 20.360390546348878 1.3582700199534155 9.507656124128129 0 0 0
160 1 20.359970876365406 4.071611372411396 6.790379660545398 0 0 0
161 1 21.717589245428954 5.426146210767771 5.430080998013955 -1 0 0
162 1 21.717561818067278 8.142002822556043 8.145464103855652 -1 0 0
163 1 2.709276236167452 5.427379340835844 8.146768595314732 0 0 0
164 1 2.708107582938841 8.140997604854256 5.428676068346294 0 0 0
165 1 1.3516236875563368 6.783894165955579 6.7872412112643286 0 0 0
166 1 1.3505970623460986 9.49931285747337 9.504354632143185 0 0 0
167 1 4.067300422942328 6.7852193705225865 9.504666408607468 0 0 0
168 1 4.063997592018394 9.49927900692652 6.786818993097292 0 0 0
169 1 5.424971519697776 5.42776210200814 5.430703044498599 0 0 0
170 1 5.423040819014755 8.143304082754534 8.145325896386405 0 0 0
171 1 8.140941767167472 5.432089993449402 8.14737225926593 0 0 0
172 1 8.139317348429211 8.14652923375737 5.430405195495369 0 0 0
173 1 6.782309019818139 6.787493686786299 6.787770471890357 0 0 0
174 1 6.782206035632289 9.500422203064387 9.501907967417946 0 0 0
175 1 9.500038627347523 6.789013861527633 9.505389260472683 0 0 0
176 1 9.498655430305815 9.503287587375283 6.788226403083762 0 0 0
177 1 10.855641096248965 5.432741856299186 5.431768286335182 0 0 0
178 1 10.856828118275175 8.147149997966135 8.14727455753076 0 0 0
179 1 13.572854056827648 5.437160741809339 8.150026197912034 0 0 0
180 1 13.571903571450592 8.148071350881771 5.431942311488358 0 0 0
181 1 12.214246621017347 6.790618363117404 6.789012437678477 0 0 0
182 1 12.215199893213018 9.50411909407831 9.506273649121425 0 0 0
183 1 14.93153506784668 6.792043763844817 9.509103759625358 0 0 0
184 1 14.930062822177193 9.503972477498538 6.791088694227286 0 0 0
185 1 16.28848840863687 5.432769488638708 5.432889750088593 0 0 0
186 1 16.288569975838072 8.147985071843857 8.149903037052226 0 0 0
187 1 19.003455674634637 5.4306697194761036 8.149291053513453 0 0 0
188 1 19.00186147366202 8.144350924924275 5.429769892099723 0 0 0
189 1 17.646013289753867 6.789602477620303 6.791714197132525 0 0 0
190 1 17.64656437781563 9.50444289086691 9.508128866148882 0 0 0
191 1 20.36183998414629 6.787222493089815 9.507492432103076 0 0 0
192 1 20.359253559901337 9.500337715740798 6.788150159755181 0 0 0
193 1 21.714099643917653 10.857513138433395 5.428466270337352 -1 0 0
194 1 21.71577077865433 13.572877877142538 8.147028213586687 -1 0 0
195 1 2.706169352251826 10.856520084870104 8.14442922351095 0 0 0
196 1 2.7051375834641718 13.573004416519478 5.430606976008023 0 0 0
197 1 1.3471861890247032 12.214039001004837 6.787453381968412 0 0 0
198 1 1.3505224493589243 14.931757427506703 9.503143756336312 0 0 0
199 1 4.0645839438029014 12.213479906575143 9.502183525091004 0 0 0
200 1 4.063294210403106 14.929918420062087 6.789777659583074 0 0 0
201 1 5.421249982297722 10.85864787811031 5.430575256080559 0 0 0
202 1 5.422951754908573 13.572047144048655 8.145942681820628 0 0 0
203 1 8.139942241687748 10.859280158416222 8.145468367735859 0 0 0
204 1 8.138467013860627 13.574606055037721 5.432493334210148 0 0 0
205 1 6.780395888740165 12.214798969225166 6.788259642903193 0 0 0
206 1 6.781657248119004 14.93186477745751 9.501564727168809 0 0 0
207 1 9.498358109572337 12.217927822050557 9.502675572751711 0 0 0
208 1 9.497116867423708 14.933005274359163 6.789416895962886 0 0 0
209 1 10.856096489671051 10.861867062081185 5.430943081899832 0 0 0
210 1 10.856518207330954 13.576717110814913 8.147009125480212 0 0 0
211 1 13.571823912623262 10.861993421098664 8.14801259950544 0 0 0
212 1 13.572040519714987 13.57787963045501 5.433695659460962 0 0 0
213 1 12.213785883141574 12.219057378269259 6.78965137630347 0 0 0
214 1 12.215172702537371 14.935108303950567 9.504883616629813 0 0 0
215 1 14.929987425045283 12.218670810632574 9.5076213994029 0 0 0
216 1 14.930286141346116 14.935394977598781 6.792253144601372 0 0 0
217 1 16.286707487452066 10.860841746028928 5.43203734666998 0 0 0
218 1 16.28699364890603 13.57611063139046 8.149545145115775 0 0 0
219 1 19.002566494190255 10.858929052123436 8.146338466098923 0 0 0
220 1 19.00036180431691 13.576402875261463 5.431720527306916 0 0 0
221 1 17.644130590663845 12.21820474491544 6.79037983831888 0 0 0
222 1 17.644532074860635 14.935034362530525 9.507043836010041 0 0 0
223 1 20.358079404536536 12.216786738694115 9.506293317669703 0 0 0
224 1 20.358543074768193 14.93269276737584 6.790648123698225 0 0 0
225 1 21.715897743125936 16.29029031512142 5.431262185155875 -1 0 0
226 1 21.71656823474857 19.00696104830488 8.146460386294397 -1 0 0
227 1 2.7068144397153877 16.29045001074854 8.145495194806934 0 0 0
228 1 2.7075241680509357 19.007084934897467 5.432270512564753 0 0 0
229 1 1.349443013826067 17.64876921881309 6.788199091916745 0 0 0
230 1 1.3508187508442073 20.36377778621252 9.50419515290266 0 0 0
231 1 4.066644941526633 17.64805389129332 9.502229631322445 0 0 0
232 1 4.066336885466711 20.36474177678973 6.78952610684886 0 0 0
233 1 5.42172456119802 16.289112095693163 5.433411055717136 0 0 0
234 1 5.424516717834173 19.007256393124937 8.146576635387426 0 0 0
235 1 8.139691000966058 16.2912819988912 8.146054552046444 0 0 0
236 1 8.140246590597428 19.007617528700223 5.434301881705385 0 0 0
237 1 6.780954181677589 17.648673488544247 6.789541066697342 0 0 0
238 1 6.783928056221583 20.365499787797255 9.50338699538164 0 0 0
239 1 9.4988317082263 17.649176700392314 9.502801926381345 0 0 0
240 1 9.498884358536378 20.366754535269028 6.790425414689097 0 0 0
241 1 10.855101440512916 16.293370001244483 5.433736372403098 0 0 0
242 1 10.85691829832649 19.009270431686968 8.147971848046842 0 0 0
243 1 13.572567833579166 16.294476777572932 8.148506499930354 0 0 0
244 1 13.571726291851686 19.009752866871764 5.435020571569962 0 0 0
245 1 12.213726795955544 17.650969725964206 6.790841217250528 0 0 0
246 1 12.215175034999518 20.367823307619563 9.505310321684957 0 0 0
247 1 14.930787437297859 17.65205064130693 9.506526130645602 0 0 0
248 1 14.93033408668241 20.36856730279502 6.791901845357401 0 0 0
249 1 16.286315153385456 16.29476923652468 5.433835504524268 0 0 0
250 1 16.287236982753754 19.010637909373813 8.149665708230291 0 0 0
251 1 19.001589546002375 16.29198326081751 8.148820907562529 0 0 0
252 1 19.001543182231483 19.00846060054874 5.432766944915126 0 0 0
253 1 17.644327242333535 17.65158443367639 6.792381534033528 0 0 0
254 1 17.645130994106424 20.36809475265494 9.507578918535748 0 0 0
255 1 20.359445081568737 17.650307765787527 9.506233732526624 0 0 0
256 1 20.35931963960435 20.36646477031484 6.790290488899407 0 0 0
257 1 21.719264426437718 21.72334076701775 10.863308970040348 -1 -1 0
258 1 21.721599895925493 2.7149289597675734 13.58109971052188 -1 0 0
259 1 2.713454487497922 21.722028211475518 13.57740301701319 0 -1 0
260 1 2.710379731442654 2.714572558857744 10.863871279049757 0 0 0
261 1 1.353994652972998 1.3561507706580558 12.222207667305879 0 0 0
262 1 1.3563144038827766 4.072399998581515 14.938399621211348 0 0 0
263 1 4.071805246524278 1.3561632986708985 14.934687626828266 0 0 0
264 1 4.069986222667375 4.072308772909984 12.220576709569578 0 0 0
265 1 5.427860933387366 4.167833614524951e-05 10.861425648458832 0 0 0
266 1 5.429523824324776 2.7149623976856883 13.576915825712257 0 0 0
267 1 8.144116323195012 0.0017334071230479253 13.576909925650476 0 0 0
268 1 8.143960066864153 2.718476280406585 10.862827927081735 0 0 0
269 1 6.7870052358228605 1.358384540260463 12.218054376584217 0 0 0
270 1 6.78543551093781 4.073361481904814 14.936775207944002 0 0 0
271 1 9.500944708861507 1.3590958095407029 14.936785484939792 0 0 0
272 1 9.500552116907443 4.076517037501972 12.222305000103278 0 0 0
273 1 10.859097248358966 0.003491069479664338 10.863107752366492 0 0 0
274 1 10.857795072417073 2.7203353300088877 13.581676302231923 0 0 0
275 1 13.57218644451097 0.004206070960803489 13.57909186300207 0 0 0
276 1 13.573557769415313 2.7223836367950334 10.86602735197436 0 0 0
277 1 12.21559805394315 1.3633107973352951 12.222117802067446 0 0 0
278 1 12.214407272768481 4.078710405560296 14.940626947083178 0 0 0
279 1 14.929553249244847 1.361732539798708 14.938799895625523 0 0 0
280 1 14.930550643438878 4.078812822328861 12.225566022069605 0 0 0
281 1 16.28803931657915 0.0024935218027662817 10.86632427595196 0 0 0
282 1 16.287760866179937 2.719637205480912 13.58191789869273 0 0 0
283 1 19.004132359722824 0.0012661164098145773 13.580213452616077 0 0 0
284 1 19.00373024511123 2.7169652390811194 10.866654866079564 0 0 0
285 1 17.645322392251998 1.3606515706464528 12.224460688448687 0 0 0
286 1 17.646656616952722 4.0751599185526794 14.94089260039044 0 0 0
287 1 20.363310596887327 1.3580577390727742 14.937574194261176 0 0 0
288 1 20.362525145913498 4.07299606481748 12.225368860303627 0 0 0
289 1 21.7196557782778 5.428878400827625 10.865553471112795 -1 0 0
290 1 21.72078655546885 8.144845759904252 13.581998096309851 -1 0 0
291 1 2.71354521047079 5.4295400705288515 13.580055329542793 0 0 0
292 1 2.710510118363055 8.143243123215827 10.863542602422134 0 0 0
293 1 1.3536474265291214 6.786633984166725 12.223312122080726 0 0 0
294 1 1.3551485982607088 9.502150947574028 14.938470007266082 0 0 0
295 1 4.071132252531819 6.7875937966552256 14.937621843235965 0 0 0
296 1 4.068183865351362 9.502407792709842 12.219737551702858 0 0 0
297 1 5.426610473817564 5.430436735381413 10.863491796110177 0 0 0
298 1 5.42681426328192 8.14739248303172 13.579744271336372 0 0 0
299 1 8.142183839928686 5.43358000895166 13.579937201928729 0 0 0
512 1 20.36303754214525 20.36589014965479 17.65062764731728 0 0 0
301 1 6.783661613914744 6.789789279924494 12.220664093926764 0 0 0
302 1 6.784871322366469 9.505821930926633 14.936532404511203 0 0 0
303 1 9.499324246983239 6.791463826506831 14.9389004361622 0 0 0
304 1 9.498060928527707 9.504006681213902 12.219816657219956 0 0 0
305 1 10.858279785937095 5.435243692258617 10.866569208853772 0 0 0
306 1 10.856178395047666 8.149720493513064 13.581349676890124 0 0 0
307 1 13.573024628684124 5.4363264571021555 13.584012164615988 0 0 0
308 1 13.573377197694047 8.149229751355934 10.86690574541112 0 0 0
309 1 12.215433587123439 6.792720708596593 12.225238052725771 0 0 0
310 1 12.214229501718824 9.507145366368828 14.939665318556457 0 0 0
311 1 14.931116764388971 6.793976755007737 14.941383455231337 0 0 0
312 1 14.931353047047994 9.506660174700576 12.224964388050235 0 0 0
313 1 16.288675142039924 5.435319955252076 10.868290688340208 0 0 0
314 1 16.28958907904194 8.150216810181742 13.58366802835454 0 0 0
315 1 19.005415159550086 5.431723870199855 13.583417414881058 0 0 0
316 1 19.00397696198071 8.146193778208007 10.866225005262558 0 0 0
317 1 17.647284323514437 6.7909832306803155 12.226666747999909 0 0 0
318 1 17.647342750176787 9.506818823115799 14.941350541214119 0 0 0
319 1 20.364359182156434 6.787842369767015 14.941380032935943 0 0 0
320 1 20.36163351352783 9.502640138063267 12.224657656853172 0 0 0
321 1 21.716946114040063 10.85818564581659 10.862836584925217 -1 0 0
322 1 21.718826179646545 13.575939229217301 13.577019822368127 -1 0 0
323 1 2.7099176057297503 10.859453115967005 13.5779940551613 0 0 0
324 1 2.7086518717252672 13.572738343846298 10.85958029953117 0 0 0
325 1 1.3514744427701286 12.216349732970155 12.219476759381433 0 0 0
326 1 1.3533966132540822 14.933663239397305 14.933662118312975 0 0 0
327 1 4.069046827219586 12.218131843402363 14.932757307239658 0 0 0
328 1 4.067362330349615 14.931124970233682 12.216394832125415 0 0 0
329 1 5.425350727182491 10.858558905139262 10.859974987324875 0 0 0
330 1 5.426762998738434 13.575165664375543 13.574336755342031 0 0 0
331 1 8.141308107603669 10.863376962368966 13.577404610148887 0 0 0
332 1 8.141134758198014 13.577110336704344 10.85939940942148 0 0 0
333 1 6.784021817040057 12.217952448147722 12.215903452210771 0 0 0
334 1 6.783103639975267 14.934481639448133 14.932393998374035 0 0 0
335 1 9.498149737412813 12.222153019302137 14.936348205341906 0 0 0
336 1 9.498881876716778 14.93529948821985 12.21763142706019 0 0 0
337 1 10.856500873566954 10.862671612099287 10.863085062154038 0 0 0
338 1 10.856102921468354 13.579808758620487 13.578082293596317 0 0 0
339 1 13.571669396046396 10.864755235500692 13.581197070422087 0 0 0
340 1 13.572507019442376 13.578270148302996 10.863836968616265 0 0 0
341 1 12.214057651928107 12.221328206421967 12.221486111030147 0 0 0
342 1 12.21343603976834 14.937471243658665 14.935997494493904 0 0 0
343 1 14.929227847732129 12.22409980822076 14.93735040121287 0 0 0
344 1 14.92907177630522 14.937577542513766 12.222024102130854 0 0 0
345 1 16.288187434457083 10.862145108698892 10.865750170010434 0 0 0
346 1 16.28716915286305 13.581158428107571 13.579835802276403 0 0 0
347 1 19.00314629380744 10.862822371845862 13.580363436745191 0 0 0
348 1 19.001832621436655 13.576940548539795 10.864785028362187 0 0 0
349 1 17.64443485900951 12.220847346388634 12.22378493581464 0 0 0
350 1 17.645878592952702 14.938256209092204 14.936811034072404 0 0 0
351 1 20.36213942743486 12.219819568717872 14.936483684125092 0 0 0
352 1 20.360509530564492 14.934603962381647 12.221273825910755 0 0 0
353 1 21.717632810775974 16.290180754083536 10.8613795345389 -1 0 0
354 1 21.720246913829754 19.00759662249715 13.577262153968649 -1 0 0
355 1 2.710952597968615 16.29044883324974 13.5743282801504 0 0 0
356 1 2.7104303012546045 19.006547935991918 10.860401343800822 0 0 0
357 1 1.352062824613917 17.648672293405625 12.217916658085239 0 0 0
358 1 1.3551806577223522 20.364530547723373 14.934742666601599 0 0 0
359 1 4.068719741445052 17.649703992664815 14.931598213041866 0 0 0
360 1 4.0695158454981195 20.364745358963724 12.217267111874728 0 0 0
361 1 5.424992385547516 16.290037970001762 10.859489838747344 0 0 0
362 1 5.4275543838137565 19.007237264309435 13.574572797239508 0 0 0
363 1 8.141714008687181 16.29285750481916 13.57564975095347 0 0 0
364 1 8.142018383533731 19.007659575523768 10.860181469272367 0 0 0
365 1 6.78405547714306 17.649007254206257 12.216475014652575 0 0 0
366 1 6.786414906929136 20.36569169340469 14.932312207661429 0 0 0
367 1 9.499000780074653 17.651559805467613 14.93437975473621 0 0 0
368 1 9.500101914887018 20.36725974127032 12.218265180908693 0 0 0
369 1 10.857065049293736 16.293613505001424 10.861680102824922 0 0 0
370 1 10.857072859966944 19.01005572542152 13.57730251661282 0 0 0
371 1 13.570902488705372 16.29577317718725 13.579482476095881 0 0 0
372 1 13.572177030646197 19.01017047069402 10.86274510308851 0 0 0
373 1 12.214507640132213 17.65223272986183 12.21959554920856 0 0 0
374 1 12.21471037557852 20.368707342259384 14.936077656985754 0 0 0
375 1 14.928653387587094 17.65388382835484 14.936799161928292 0 0 0
376 1 14.928648746398585 20.36854418225211 12.221507892114378 0 0 0
377 1 16.287893628600703 16.294576354177337 10.86471061971456 0 0 0
378 1 16.28684091019803 19.01134446996022 13.579296585259792 0 0 0
379 1 19.003783165858607 16.294695203347413 13.578310889374865 0 0 0
380 1 19.003013421332447 19.010024494210572 10.864707755211887 0 0 0
381 1 17.645195595976208 17.65291792850322 12.222439996934723 0 0 0
382 1 17.645176985904065 20.368383880058694 14.937187827422122 0 0 0
383 1 20.36243673045738 17.65155024848973 14.93599777619569 0 0 0
384 1 20.361736610499708 20.367062891925226 12.222198863252403 0 0 0
385 1 21.721365850062988 21.722809706987615 16.292048055250028 -1 -1 0
386 1 21.720492146334408 2.711281768413544 19.008396672021096 -1 0 0
387 1 2.711310293544909 21.720197036263723 19.007867054984146 0 -1 0
388 1 2.7144185277414627 2.713230982877643 16.29359639188777 0 0 0
389 1 1.3556448925455502 1.3553627691894465 17.650013924723623 0 0 0
390 1 1.3539414912438572 4.06862852156238 20.366978801445025 0 0 0
391 1 4.069537792137865 1.3525816523684238 20.36691006680159 0 0 0
392 1 4.072098530603279 4.069839096382882 17.652924465278723 0 0 0
393 1 5.42903607410217 21.721883941555753 16.292056337202645 0 -1 0
394 1 5.428665691696032 2.7110279937601165 19.010906865834663 0 0 0
395 1 8.142881287701497 21.721544535024172 19.00875478338274 0 -1 0
396 1 8.143495192469524 2.716068318631795 16.29445496078185 0 0 0
397 1 6.786742247777352 1.3559229369863848 17.65064896936733 0 0 0
398 1 6.785487083291289 4.070520826274274 20.36843084061003 0 0 0
399 1 9.500028023460887 1.3565701845957663 20.36652684476059 0 0 0
400 1 9.499113258989075 4.075266166977636 17.6525957689029 0 0 0
401 1 10.85803771908527 0.0019895093236700838 16.29490484916312 0 0 0
402 1 10.857123828738631 2.7174033773991684 19.00994847118038 0 0 0
403 1 13.571771390402036 0.0015766772648259555 19.010850017909824 0 0 0
404 1 13.5726978893746 2.720331733127753 16.296989150580277 0 0 0
405 1 12.215663982100958 1.3602711880150358 17.652727924132506 0 0 0
406 1 12.214315700011358 4.074827319579944 20.36906634850279 0 0 0
407 1 14.930784377823295 1.3590031903453375 20.36776345604501 0 0 0
408 1 14.930722387371247 4.077904965773916 17.654718803770265 0 0 0
409 1 16.287052817012608 0.0019020467905619398 16.294939689017315 0 0 0
410 1 16.28831481675048 2.7163524314433376 19.009514047227096 0 0 0
411 1 19.003863009362536 21.72250591412961 19.008153704569164 0 -1 0
412 1 19.005439441455042 2.71534260560014 16.295978890006225 0 0 0
413 1 17.64609156610798 1.3582006161790936 17.65179116643648 0 0 0
414 1 17.645570111736433 4.073022167748351 20.368222917871 0 0 0
415 1 20.361723294511616 1.3542106807589884 20.366605668525853 0 0 0
416 1 20.36312673853414 4.072222592634159 17.65426339102101 0 0 0
417 1 21.72219041620901 5.428912861655387 16.29737529611939 -1 0 0
418 1 21.72026366622884 8.143559248760532 19.00985780915456 -1 0 0
419 1 2.7128132791279698 5.426554926956483 19.00991680738329 0 0 0
420 1 2.713458462080051 8.14447192301511 16.29547174363889 0 0 0
421 1 1.356340031203053 6.786477124313807 17.65351625236624 0 0 0
422 1 1.3529911428617112 9.501904407130278 20.36701400618305 0 0 0
423 1 4.069579581391418 6.784782863447331 20.368593564766257 0 0 0
424 1 4.069660046675639 9.503322367246708 17.652598691155323 0 0 0
425 1 5.428240432632438 5.430411917711918 16.29617346661707 0 0 0
426 1 5.425849167086483 8.145561931594077 19.012002452751148 0 0 0
427 1 8.142263902064787 5.431434622370965 19.01222103300799 0 0 0
428 1 8.14101011530643 8.148373152380026 16.296354707432748 0 0 0
429 1 6.784389421330321 6.789243119820601 17.65441136355046 0 0 0
430 1 6.783139719057444 9.504202806064102 20.368976337859927 0 0 0
431 1 9.499745401332387 6.790129366582912 20.369823490215108 0 0 0
432 1 9.498539322030641 9.507692523102813 17.653455099344207 0 0 0
433 1 10.856967515963717 5.435893972002303 16.298499025717327 0 0 0
434 1 10.856147389426557 8.15069597336149 19.012498324838653 0 0 0
435 1 13.571471870459956 5.43421253195468 19.012865129993624 0 0 0
436 1 13.572545460430604 8.150936756497215 16.29907778045009 0 0 0
437 1 12.2147127134197 6.793184177789906 17.656370510299983 0 0 0
438 1 12.21380101196668 9.508182519085933 20.36996516818934 0 0 0
439 1 14.929346151855055 6.791306488122681 20.369966709123602 0 0 0
440 1 14.930723741437017 9.508554371182978 17.655660184138707 0 0 0
441 1 16.289069970787803 5.435070732082725 16.297375722169303 0 0 0
442 1 16.28754534251417 8.148426228210056 19.012585402850384 0 0 0